76
PET trimer 2 ns, timestep 1000000, unwrap Lx 41.001208 (log)
C        3.42554958      -0.71817532      -2.79712671
C        3.37014958       0.65892468      -3.05566671
C        3.44274958       1.55232468      -1.93287671
C        3.51794958       1.04212468      -0.61470671
C        3.66604958      -0.35797532      -0.43571671
C        3.73104958      -1.29587532      -1.50064671
C        3.14984958       2.97972468      -2.07860671
O        3.03414958       3.47032468      -3.13918671
O        2.98624958       3.62412468      -0.89981671
C        3.88804958      -2.71058332      -1.26780671
O        3.49504958      -3.54598332      -2.16599671
H        3.28134958      -1.39407532      -3.62700171
H        3.06584958       1.04442468      -4.01753771
H        3.57244958       1.73772468       0.20964329
H        3.60884958      -0.79697532       0.54934329
O        4.55044958      -3.02838332      -0.12330671
C        4.62114958      -4.40448332       0.22524329
C        3.17184958      -5.10898332       0.38250329
C        0.85214958      -1.12307532       3.57901329
C        1.27054958      -2.30228332       2.93074329
C        0.72754958      -2.67948332       1.66946329
C       -0.40675042      -1.96537532       1.26156329
C       -0.74555042      -0.71777532       1.85404329
C       -0.13975042      -0.26907532       3.02494329
C        1.27414958      -3.81318332       0.81936329
O        0.52824958      -4.57788332       0.20338329
O        2.50364958      -4.16028332       1.21578329
C       -0.64045042       0.94862468       3.82849329
O       -0.12105042       1.29532468       4.81174329
O       -1.71945042       1.59452468       3.20332329
C       -2.34755842       2.66902468       3.82893329
O       -2.37435842       5.03042468       4.15748329
C       -1.49255042       3.91922468       3.87934329
H        5.21194958      -4.86718332      -0.56529671
H        5.25324958      -4.57018332       1.09765329
H        3.28554958      -6.05968332       0.90322329
H        2.71314958      -5.50048332      -0.52544671
H        1.18724958      -0.86357532       4.57235329
H        1.93544958      -2.95108332       3.48149329
H       -1.02865042      -2.30808332       0.44784329
H       -1.44695042      -0.12927532       1.28130329
H       -2.47265842       2.23912468       4.82270329
H       -3.34545842       2.98172468       3.52128329
H       -2.77625842       4.96432468       5.01020329
H       -1.07025042       3.97492468       2.87604329
H       -0.67285042       3.98112468       4.59504329
O        0.44614958       3.56672468      -0.45616671
C        1.09244958       4.65862468       0.04809329
C        2.33944958       4.88552468      -0.78618671
H        0.49364958       5.53232468       0.30554329
H        1.38444958       4.33262468       1.04634329
H        2.90694958       5.59942468      -0.18912671
H        2.17774958       5.38842468      -1.73965671
C       -6.16635842      -2.49628332      -2.91665671
C       -4.86755842      -3.06988332      -2.29496671
C       -2.73035842       1.73022468      -0.78169671
C       -3.21645842       0.46582468      -1.22324671
C       -2.44055842      -0.33247532      -2.12849671
C       -1.11295042       0.04982468      -2.39301671
C       -0.64485042       1.24362468      -1.74900671
C       -1.44475042       2.04332468      -0.91226671
C       -3.04515842      -1.64677532      -2.65700671
O       -2.49445842      -2.27258332      -3.56530271
O       -4.04175842      -1.98377532      -1.93823671
C       -0.94505042       3.34592468      -0.35393671
O       -1.76635042       4.16842468       0.09525329
H       -6.78695842      -3.31478332      -3.28130671
H       -5.80625842      -1.90867532      -3.76114471
H       -4.38465842      -3.68298332      -3.05588671
H       -5.09855842      -3.64308332      -1.39709671
H       -3.48785842       2.29892468      -0.26288671
H       -4.27325842       0.39272468      -1.01256671
H       -0.55815042      -0.57257532      -3.07945671
H        0.38344958       1.46612468      -1.99268671
O       -6.82315842      -1.71577532      -1.96686671
H       -6.60995842      -2.01757532      -1.09711671
