76
PET trimer 10 ns, timestep 5000000, unwrap Lx 40.965145 (log)
C       -0.63187572       0.63878245       0.12324309
C        0.30912428       1.42033245      -0.62865691
C        0.26552428       2.83692245      -0.70285691
C       -0.70727572       3.47975245       0.08254309
C       -1.61647572       2.78573245       0.93574309
C       -1.56947572       1.37454245       0.96124309
C        1.20122428       3.62265245      -1.52665691
O        1.09162428       4.85833245      -1.48375691
O        2.29252428       2.88237245      -1.90895691
C       -2.41397572       0.62071245       1.93084309
O       -3.21937572       1.15319245       2.72594309
H       -0.61927572      -0.43784755       0.20784309
H        1.02552428       1.00084245      -1.31955691
H       -0.83867572       4.55171245       0.09254309
H       -2.38087572       3.29951245       1.49984309
O       -2.04287572      -0.67766755       1.94624309
C       -2.54517572      -1.59033755       2.96434309
C       -3.81227572      -2.33789755       2.38224309
C       -1.15567572      -2.71783755      -3.11265691
C       -1.43197572      -3.25303455      -1.83615691
C       -2.39907572      -2.66036755      -1.09995691
C       -3.26777572      -1.71981755      -1.69545691
C       -3.07747572      -1.16237755      -2.97465691
C       -1.95257572      -1.66001755      -3.65635691
C       -2.63697572      -3.12021755       0.31134309
O       -1.76757572      -3.87751255       0.81454309
O       -3.67647572      -2.51679755       0.96704309
C       -1.72267572      -1.16529755      -5.07705691
O       -2.66347572      -1.08838755      -5.77880191
O       -0.49737572      -1.27248755      -5.45745691
C       -0.12417572      -1.23048755      -6.82430191
O        1.95132428      -1.70532755      -8.18050191
C        1.25462428      -1.92649755      -6.88560191
H       -1.73247572      -2.31416755       2.90364309
H       -2.52717572      -1.22697755       3.99194309
H       -4.70982072      -1.76439755       2.61384309
H       -3.96347572      -3.36416255       2.71704309
H       -0.20177572      -2.86953755      -3.59595691
H       -0.58267572      -3.68562255      -1.32805691
H       -4.00637572      -1.16348755      -1.13735691
H       -3.71887572      -0.40947755      -3.40855691
H        0.00182428      -0.18533755      -7.10700191
H       -0.90617572      -1.64963755      -7.45740191
H        1.55372428      -1.91563755      -9.01160191
H        1.39502428      -2.94132755      -6.51340191
H        1.88332428      -1.33288755      -6.22190191
O        3.96822428       2.82545245      -0.14605691
C        4.47362428       3.68225245      -1.20475691
C        3.48902428       3.44558245      -2.38655691
H        4.55722428       4.72121245      -0.88575691
H        5.52302428       3.48563245      -1.42425691
H        3.85612428       3.01050245      -3.31615691
H        3.16262428       4.44184245      -2.68495691
C       -0.08727572      -3.52091355       4.99658309
C       -0.05587572      -2.13605755       5.57372309
C        1.98072428       3.10211245       2.95854309
C        1.31402428       2.39038245       3.98124309
C        1.33492428       0.95685245       3.93384309
C        2.07722428       0.34598245       2.89694309
C        2.70962428       1.14549245       1.90744309
C        2.73332428       2.53984245       1.91914309
C        0.40072428       0.12013245       4.75534309
O       -0.59937572       0.61373245       5.26033309
O        0.43802428      -1.23856755       4.51154309
C        3.28412428       3.45883245       0.91354309
O        3.19982428       4.71525245       1.13164309
H       -1.11267572      -3.57373455       4.63054309
H       -0.08117572      -4.28094555       5.77790309
H        0.81302428      -2.07800755       6.22932309
H       -1.00217572      -1.85480755       6.03582309
H        1.86032428       4.15340245       3.17474309
H        0.59812428       2.81748245       4.66794309
H        2.25712428      -0.71186755       3.01954309
H        3.31442428       0.64216245       1.16754309
O        0.95062428      -3.72518055       4.00254309
H        1.53682428      -3.07657755       4.36134309
