76
PET trimer extracted from eq1.xyz timestep 500000
C       -1.76813999      -1.55613846      -4.42678203
C       -2.66153999      -1.96353846      -3.42938203
C       -2.16553999      -2.48114846      -2.23008203
C       -0.74743999      -2.37520846      -2.01938203
C        0.14066001      -1.96748846      -2.97358203
C       -0.32573999      -1.43405846      -4.21688203
C       -3.17483999      -2.94609846      -1.21548203
O       -2.83663999      -3.65819846      -0.24648203
O       -4.43433999      -2.45391846      -1.44898203
C        0.54276001      -0.88208846      -5.35308203
O        0.05396001      -0.27377846      -6.26948203
H       -2.22743999      -1.17103846      -5.32518203
H       -3.73553999      -1.99260846      -3.53948203
H       -0.30383999      -2.79079846      -1.12658203
H        1.19716001      -2.14244846      -2.83318203
O        1.80606001      -1.42806846      -5.21808203
C        2.74336001      -1.08373846      -6.18808203
C        4.12673001      -1.69391846      -5.95238203
C        4.42451001       1.21788154      -0.73528203
C        4.37559001       1.10340154      -2.13748203
C        4.91091001      -0.10850846      -2.69118203
C        5.46043001      -1.11717846      -1.92008203
C        5.45065001      -0.99938846      -0.53288203
C        4.94190001       0.14575154       0.05061797
C        4.87204001      -0.27149846      -4.19478203
O        4.66765001       0.64742154      -4.87958203
O        4.57714001      -1.45628846      -4.64378203
C        4.98677001       0.29763154       1.53896897
O        4.06714001       0.74342154       2.18746897
O        5.86550001      -0.63869846       2.15146897
C        5.91631001      -0.90030846       3.55456897
O        4.83809001      -2.01007846       5.52916897
C        5.04905001      -2.10217846       4.06106897
H        2.39436001      -1.54621846      -7.11138203
H        2.80676001       0.00435154      -6.17428203
H        4.79493001      -1.22161846      -6.67248203
H        4.08993001      -2.77869846      -6.05228203
H        4.15771001       2.12811154      -0.21878203
H        3.98978001       1.83987154      -2.82688203
H        5.97657001      -1.90877846      -2.44298203
H        5.91964001      -1.81586846      -0.00398203
H        5.58581001       0.01392154       4.04756897
H        6.97825001      -0.85092846       3.79536897
H        4.67296001      -1.11013846       5.76566897
H        5.48242001      -3.07659846       3.83536897
H        4.07280001      -2.07375846       3.57696897
O       -5.93903999      -0.80315846       0.55821797
C       -6.55893999      -1.78196846      -0.23158203
C       -5.48133999      -2.84859846      -0.55258203
H       -7.38789099      -2.29705846       0.25401797
H       -6.89103999      -1.40277846      -1.19798203
H       -5.97143999      -3.71879846      -0.98928203
H       -5.10533999      -3.32949846       0.35051797
C       -1.62613999       6.33338354       3.13306897
C       -1.98113999       5.51744154       4.40786897
C       -4.61083999      -0.04202846       3.91766897
C       -3.97573999       0.99926154       4.60206897
C       -3.51113999       2.18835154       3.80826897
C       -3.67913999       2.18041154       2.45496897
C       -4.41123999       1.08971154       1.84886897
C       -5.00293999       0.04607154       2.55386897
C       -2.97553999       3.36275154       4.60756897
O       -3.06313999       3.47055154       5.78316897
O       -2.33033999       4.25269154       3.75496897
C       -5.91073999      -0.95221846       1.92686897
O       -6.38013999      -1.87622846       2.55056897
H       -0.74433999       6.00086154       2.58536897
H       -1.39313999       7.35692184       3.42666897
H       -2.77463999       6.11944154       4.85056897
H       -1.04413999       5.44097154       4.95956897
H       -4.84203999      -0.98626846       4.38816897
H       -3.85393999       0.85277154       5.66516897
H       -3.30363999       2.98458154       1.83956897
H       -4.48523999       1.12237154       0.77186897
O       -2.81493999       6.24678154       2.29876897
H       -3.50593999       6.61252254       2.82956897
