LAMMPS (29 Aug 2024)
OMP_NUM_THREADS environment is not set. Defaulting to 1 thread. (src/comm.cpp:98)
  using 1 OpenMP thread(s) per MPI task
Reading data file ...
  orthogonal box = (-25 -25 -25) to (25 25 25)
  8 by 8 by 4 MPI processor grid
  reading atoms ...
  6076 atoms
  reading velocities ...
  6076 velocities
  scanning bonds ...
  4 = max bonds/atom
  scanning angles ...
  6 = max angles/atom
  scanning dihedrals ...
  12 = max dihedrals/atom
  orthogonal box = (-25 -25 -25) to (25 25 25)
  8 by 8 by 4 MPI processor grid
  reading bonds ...
  4078 bonds
  reading angles ...
  2128 angles
  reading dihedrals ...
  168 dihedrals
Finding 1-2 1-3 1-4 neighbors ...
  special bond factors lj:    0        0        0.5     
  special bond factors coul:  0        0        0.5     
     4 = max # of 1-2 neighbors
     6 = max # of 1-3 neighbors
    11 = max # of 1-4 neighbors
    13 = max # of special neighbors
  special bonds CPU = 0.609 seconds
  read_data CPU = 0.801 seconds
76 atoms in group pet
6000 atoms in group mol

CITE-CITE-CITE-CITE-CITE-CITE-CITE-CITE-CITE-CITE-CITE-CITE-CITE

Your simulation uses code contributions which should be cited:
- Type Label Framework: https://doi.org/10.1021/acs.jpcb.3c08419
The log file lists these citations in BibTeX format.

CITE-CITE-CITE-CITE-CITE-CITE-CITE-CITE-CITE-CITE-CITE-CITE-CITE

PPPM initialization ...
  using 12-bit tables for long-range coulomb (src/kspace.cpp:342)
  G vector (1/distance) = 0.24641779
  grid = 32 32 32
  stencil order = 5
  estimated absolute RMS force accuracy = 0.0033879612
  estimated relative force accuracy = 1.0202744e-05
  using double precision FFTW3
  3d grid and FFT values/proc = 1815 128
Generated 66 of 66 mixed pair_coeff terms from geometric mixing rule
Neighbor list info ...
  update: every = 1 steps, delay = 0 steps, check = yes
  max neighbors/atom: 2000, page size: 100000
  master list distance cutoff = 14
  ghost atom cutoff = 14
  binsize = 7, bins = 8 8 8
  1 neighbor lists, perpetual/occasional/extra = 1 0 0
  (1) pair lj/cut/coul/long, perpetual
      attributes: half, newton on
      pair build: half/bin/newton
      stencil: half/bin/3d
      bin: standard
Setting up cg style minimization ...
  Unit style    : real
  Current step  : 0
Per MPI rank memory allocation (min/avg/max) = 14.15 | 14.19 | 14.64 Mbytes
   Step          Temp          E_pair         E_mol          TotEng         Press     
         0   0              5448722.1      607.81523      5449329.9      11961777     
      4914   0             -27603.321      1722.5865     -25880.735     -1860.8395    
Loop time of 10.9832 on 256 procs for 4914 steps with 6076 atoms

99.6% CPU use with 256 MPI tasks x 1 OpenMP threads

Minimization stats:
  Stopping criterion = energy tolerance
  Energy initial, next-to-last, final = 
      5449329.87145276  -25880.7348298612  -25880.7348835822
  Force two-norm initial, final = 93123037 2.5650367
  Force max component initial, final = 48159364 0.67566802
  Final line search alpha, max atom move = 1.4369359e-06 9.7089164e-07
  Iterations, force evaluations = 4914 9826

MPI task timing breakdown:
Section |  min time  |  avg time  |  max time  |%varavg| %total
---------------------------------------------------------------
Pair    | 0.034974   | 1.2871     | 3.2308     |  66.7 | 11.72
Bond    | 0.0017347  | 0.0094639  | 0.092286   |   9.9 |  0.09
Kspace  | 5.4344     | 7.448      | 8.6953     |  28.0 | 67.81
Neigh   | 0.051979   | 0.055562   | 0.058785   |   0.6 |  0.51
Comm    | 1.3263     | 1.4845     | 1.6005     |   4.6 | 13.52
Output  | 0          | 0          | 0          |   0.0 |  0.00
Modify  | 0          | 0          | 0          |   0.0 |  0.00
Other   |            | 0.6986     |            |       |  6.36

Nlocal:        23.7344 ave          52 max           0 min
Histogram: 28 18 23 35 41 36 30 20 13 12
Nghost:        2268.41 ave        2576 max        1905 min
Histogram: 4 18 24 35 23 33 49 31 29 10
Neighs:        6943.14 ave       18224 max           0 min
Histogram: 33 30 42 42 37 19 21 17 10 5

Total # of neighbors = 1777444
Ave neighs/atom = 292.53522
Ave special neighs/atom = 2.0951284
Neighbor list builds = 110
Dangerous builds = 0
Finding SHAKE clusters ...
      14 = # of size 2 clusters
    2008 = # of size 3 clusters
       0 = # of size 4 clusters
       0 = # of frozen angles
  find clusters CPU = 0.013 seconds
PPPM initialization ...
  using 12-bit tables for long-range coulomb (src/kspace.cpp:342)
  G vector (1/distance) = 0.24641779
  grid = 32 32 32
  stencil order = 5
  estimated absolute RMS force accuracy = 0.0033879612
  estimated relative force accuracy = 1.0202744e-05
  using double precision FFTW3
  3d grid and FFT values/proc = 1815 128
Generated 66 of 66 mixed pair_coeff terms from geometric mixing rule
Neighbor list info ...
  update: every = 1 steps, delay = 2 steps, check = yes
  max neighbors/atom: 2000, page size: 100000
  master list distance cutoff = 14
  ghost atom cutoff = 14
  binsize = 7, bins = 8 8 8
  4 neighbor lists, perpetual/occasional/extra = 1 3 0
  (1) pair lj/cut/coul/long, perpetual
      attributes: half, newton on
      pair build: half/bin/newton
      stencil: half/bin/3d
      bin: standard
  (2) compute group/group, occasional, copy from (1)
      attributes: half, newton on
      pair build: copy
      stencil: none
      bin: none
  (3) compute group/group, occasional, copy from (1)
      attributes: half, newton on
      pair build: copy
      stencil: none
      bin: none
  (4) compute group/group, occasional, copy from (1)
      attributes: half, newton on
      pair build: copy
      stencil: none
      bin: none
Setting up Verlet run ...
  Unit style    : real
  Current step  : 0
  Time step     : 2
Per MPI rank memory allocation (min/avg/max) = 15.09 | 15.15 | 15.47 Mbytes
   Step          Temp            Lx           Volume         PotEng         KinEng         Press         Density    
         0   453.15         50             125000        -27238.89       6391.318      -571.42155      0.48712744   
      1000   442.47927      47.051405      104164.03     -16492.727      6240.8159     -301.82056      0.58456771   
      2000   458.11834      44.805507      89948.552     -16200.575      6461.3924     -796.69882      0.67695286   
      3000   454.80856      43.017906      79606.368     -16895.868      6414.7107     -435.6155       0.76490023   
      4000   453.74162      41.801169      73040.762     -17064.332      6399.6624     -200.67863      0.83365682   
      5000   454.08514      40.956758      68703.159     -17401.606      6404.5074     -4.7780357      0.88629009   
      6000   451.84939      40.658758      67214.401     -17458.4        6372.974       266.98256      0.90592089   
      7000   447.39563      40.839013      68112.328     -17278.998      6310.1572     -413.92801      0.89397809   
      8000   455.87527      40.770634      67770.766     -17295.986      6429.7558      136.24742      0.89848372   
      9000   463.35055      40.874024      68287.653     -17446.237      6535.1886     -166.51312      0.89168285   
     10000   447.72236      40.692348      67381.122     -17516.761      6314.7656     -201.90936      0.90367936   
     11000   447.34138      41.024401      69044.129     -17328.718      6309.3921     -144.04876      0.88191321   
     12000   449.12206      41.002002      68931.096     -17420.42       6334.5072     -194.29855      0.88335937   
     13000   453.35631      40.850765      68171.144     -17321.511      6394.2278     -263.53826      0.8932068    
     14000   451.24096      40.945989      68648.981     -17298.518      6364.3925      268.37675      0.88698955   
     15000   451.02765      41.037836      69111.983     -17306.759      6361.384      -184.54924      0.88104735   
     16000   455.64257      40.960107      68720.014     -17318.308      6426.4738     -105.58083      0.88607272   
     17000   447.94851      41.02846       69064.626     -17303.632      6317.9552      87.438559      0.88165148   
     18000   458.38252      41.078063      69315.42      -17244.84       6465.1186     -283.91821      0.87846152   
     19000   459.90117      41.078657      69318.428     -17291.3        6486.5378     -433.68566      0.8784234    
     20000   457.69633      41.260894      70245.076     -17224.726      6455.4404     -226.24394      0.86683555   
     21000   457.22762      40.926683      68551.923     -17252.329      6448.8296      138.12926      0.88824539   
     22000   454.63788      41.094049      69396.377     -17207.261      6412.3034     -70.068552      0.87743672   
     23000   456.75777      41.057302      69210.38      -17483.568      6442.2028     -580.84233      0.87979475   
     24000   456.69965      41.039772      69121.767     -17266.643      6441.3829      378.8725       0.88092264   
     25000   451.80472      40.984962      68845.19      -17191.703      6372.3439      254.63551      0.88446163   
     26000   451.10702      41.212026      69995.784     -17001.823      6362.5034     -504.1343       0.86992282   
     27000   459.36224      41.374533      70827.077     -17006.147      6478.9367     -409.38121      0.85971258   
     28000   452.89705      40.978216      68811.203     -17201.255      6387.7503     -500.00242      0.88489849   
     29000   452.44966      40.962049      68729.789     -17280.058      6381.4403      146.87302      0.88594669   
     30000   441.91671      41.12802       69568.623     -17192.768      6232.8815     -562.40287      0.87526426   
     31000   447.27165      41.106322      69458.574     -17264.908      6308.4086      173.00058      0.87665102   
     32000   457.06213      41.087745      69364.444     -17171.557      6446.4955      450.2659       0.87784066   
     33000   460.46391      40.897127      68403.513     -17248.726      6494.4748      247.4629       0.89017254   
     34000   446.38841      41.209475      69982.79      -17304.926      6295.9513     -427.27666      0.87008433   
     35000   457.61691      41.368664      70796.94      -17240.608      6454.3203     -378.61132      0.86007854   
     36000   454.20824      40.825586      68045.167     -17265.559      6406.2436      291.97789      0.89486046   
     37000   453.40088      41.112341      69489.09      -17177.976      6394.8564      162.17285      0.87626603   
     38000   444.88393      41.002191      68932.048     -17139.471      6274.7318      342.76251      0.88334717   
     39000   453.95573      40.856096      68197.835     -17250.563      6402.6822      590.09422      0.89285723   
     40000   451.30901      41.412507      71022.274     -17206.576      6365.3524      226.56875      0.85734975   
     41000   464.08871      41.166175      69762.42      -17024.735      6545.5997      178.05057      0.87283282   
     42000   444.02768      41.286694      70376.931     -17429.464      6262.655      -147.63901      0.8652115    
     43000   460.43704      40.892909      68382.351     -17247.031      6494.0959      543.37502      0.89044802   
     44000   455.1032       41.152318      69691.999     -17232.903      6418.8664     -213.27298      0.87371477   
     45000   452.60879      41.124187      69549.175     -17128.123      6383.6847      53.580667      0.87550901   
     46000   448.46427      41.419814      71059.873     -17042.848      6325.2296      28.678505      0.85689611   
     47000   450.98357      41.193955      69903.749     -17036.694      6360.7622      391.39061      0.87106815   
     48000   454.2825       41.236254      70119.305     -17147.895      6407.291       147.04996      0.86839037   
     49000   451.37952      41.263441      70258.088     -17257.784      6366.3469      147.21172      0.86667501   
     50000   452.82726      41.173337      69798.841     -16944.476      6386.766      -6.5597267      0.87237737   
     51000   456.07979      41.090779      69379.811     -17261.449      6432.6404     -38.734535      0.87764623   
     52000   450.92027      41.260009      70240.557     -17176.759      6359.8694      241.51677      0.86689132   
     53000   457.07669      41.086382      69357.541     -17191.884      6446.7009     -157.53091      0.87792803   
     54000   452.18425      40.992008      68880.704     -17313.551      6377.6969      90.066853      0.88400561   
     55000   455.35787      41.375503      70832.056     -16937.487      6422.4582     -655.60246      0.85965216   
     56000   453.92846      41.18997       69883.463     -17162.426      6402.2975     -230.7628       0.87132101   
     57000   454.36104      41.267078      70276.667     -17278.318      6408.3988     -118.46137      0.86644589   
     58000   454.55173      41.035916      69102.285     -17042.766      6411.0884      85.063001      0.881171     
     59000   448.94393      41.151307      69686.86      -17206.275      6331.9948      64.647623      0.87377921   
     60000   461.13616      41.233417      70104.834     -17160.725      6503.9565      16.92854       0.86856962   
     61000   448.16171      41.319577      70545.223     -17129.149      6320.9623      8.4975564      0.86314746   
     62000   453.6066       41.204983      69959.904     -17188.547      6397.758      -357.44324      0.87036897   
     63000   465.92112      41.185657      69861.513     -17301.241      6571.4444     -296.29102      0.87159477   
     64000   454.3274       41.130422      69580.813     -17166.955      6407.9243      223.51828      0.87511092   
     65000   449.81836      41.118337      69519.495     -17245.205      6344.3279      178.1316       0.87588279   
     66000   448.21004      41.292303      70405.619     -17222.062      6321.6439     -41.891933      0.86485895   
     67000   449.87652      41.351896      70710.886     -17065.996      6345.1482     -105.24173      0.86112525   
     68000   463.10592      41.134386      69600.931     -17229.412      6531.7384      421.02887      0.87485797   
     69000   449.0185       41.102936      69441.41      -17195.474      6333.0465      153.26655      0.87686769   
     70000   456.24859      41.203536      69952.538     -17102.238      6435.0211      30.353013      0.87046062   
     71000   450.86185      41.307494      70483.353     -16884.972      6359.0455     -100.49313      0.86390512   
     72000   448.22373      41.377943      70844.592     -16991.004      6321.8369      170.15501      0.85950003   
     73000   462.28178      41.065426      69251.469     -17225.014      6520.1144     -8.0710192      0.87927275   
     74000   450.11556      41.107221      69463.133     -17165.081      6348.5197      121.91765      0.87659348   
     75000   454.19993      41.267524      70278.944     -17024.526      6406.1265     -275.28174      0.86641782   
     76000   449.50608      41.035473      69100.047     -17172.84       6339.9235      106.18312      0.88119954   
     77000   452.83444      40.969518      68767.396     -17203.187      6386.8672      553.49642      0.8854622    
     78000   438.7829       40.921232      68524.535     -17194.649      6188.6816      696.25938      0.88860041   
     79000   447.08515      41.266208      70272.222     -17035.901      6305.7782      17.022177      0.8665007    
     80000   457.66694      41.15171       69688.906     -17065.096      6455.0258      190.56149      0.87375355   
     81000   451.41797      41.151533      69688.01      -17091.139      6366.8891      93.724952      0.87376479   
     82000   448.90394      41.179284      69829.09      -17240.92       6331.4308     -174.65031      0.87199947   
     83000   452.77442      41.16294       69745.977     -17206.861      6386.0207     -570.72506      0.87303859   
     84000   448.55423      41.109457      69474.465     -17128.798      6326.4984      58.066042      0.87645049   
     85000   439.93148      41.165738      69760.2       -17111.335      6204.8814      473.94571      0.87286059   
     86000   452.77514      41.256755      70223.94      -17016.966      6386.0309      431.66278      0.86709646   
     87000   453.88856      41.149273      69676.528     -17293.109      6401.7349     -19.61692       0.87390878   
     88000   450.07917      41.166375      69763.437     -17085.323      6348.0065      129.29059      0.87282009   
     89000   453.13843      41.292907      70408.706     -17259.548      6391.1549     -67.207314      0.86482103   
     90000   455.58355      41.086763      69359.474     -17460.477      6425.6413      249.26008      0.87790356   
     91000   449.51767      41.46658       71300.843     -17133.853      6340.0869      181.52821      0.85400013   
     92000   454.98271      41.122177      69538.976     -17335.556      6417.167      -370.75655      0.87563741   
     93000   448.46794      41.234209      70108.877     -17265.03       6325.2813     -389.65413      0.86851954   
     94000   456.19172      41.430624      71115.525     -17052.663      6434.2191      0.24839773     0.85622555   
     95000   449.85723      41.334517      70621.769     -17178.021      6344.8761     -16.315253      0.8622119    
     96000   443.2697       41.169613      69779.901     -17263.722      6251.9643      288.65085      0.87261415   
     97000   457.25673      41.296054      70424.806     -17256.621      6449.2401     -438.60089      0.86462332   
     98000   454.28393      41.227252      70073.393     -16958.8        6407.3112     -188.40725      0.86895934   
     99000   443.55438      40.987         68855.46      -17202.705      6255.9795      95.09858       0.88432971   
    100000   452.40745      41.26994       70291.291     -17026.147      6380.845       136.40189      0.86626563   
    101000   442.28488      41.239413      70135.421     -17185.671      6238.0742     -108.6675       0.86819083   
    102000   456.31705      41.172089      69792.492     -17187.571      6435.9868      457.84716      0.87245673   
    103000   457.75743      41.259221      70236.531     -16920.203      6456.3021      3.6588627      0.86694101   
    104000   455.44297      41.144513      69652.35      -17202.44       6423.6585      421.59931      0.87421213   
    105000   459.16004      41.40889       71003.664     -17159.444      6476.0849     -137.93307      0.85757447   
    106000   458.20143      41.030561      69075.232     -17098.596      6462.5644      382.34279      0.8815161    
    107000   444.27237      41.214533      70008.559     -17070.896      6266.1062     -77.306057      0.86976408   
    108000   448.35819      41.201638      69942.872     -17221.888      6323.7334     -617.81561      0.87058092   
    109000   456.54674      41.241537      70146.263     -17034.527      6439.2263      226.41559      0.86805664   
    110000   446.90191      41.410884      71013.924     -16962.317      6303.1937     -193.79759      0.85745057   
    111000   453.02945      41.026694      69055.705     -17186.96       6389.6178      153.14213      0.88176537   
    112000   458.18024      41.262541      70253.49      -17146.178      6462.2655      372.86561      0.86673173   
    113000   458.87801      40.98243       68832.435     -17283.495      6472.107      -53.570002      0.88462553   
    114000   445.74068      41.346099      70681.152     -17142.21       6286.8155     -120.19235      0.86148751   
    115000   452.06115      41.119         69522.863     -17272.963      6375.9607      131.88478      0.87584036   
    116000   454.92457      41.344078      70670.786     -17314.965      6416.3469     -124.32592      0.86161387   
    117000   456.07722      41.018785      69015.776     -17215.414      6432.6041      342.6616       0.88227551   
    118000   448.73879      41.237719      70126.781     -17056.103      6329.1014     -196.99764      0.8682978    
    119000   446.71885      41.392237      70918.035     -17066.96       6300.6118     -267.02992      0.85860994   
    120000   442.03366      41.08282       69339.507     -17250.868      6234.5309      332.91209      0.87815636   
    121000   452.85831      41.130241      69579.892     -17285.9        6387.204      -87.530159      0.87512251   
    122000   453.94316      41.291585      70401.944     -17168.376      6402.5049     -686.89627      0.8649041    
    123000   450.9101       41.071014      69279.744     -17312.995      6359.7261      467.61214      0.8789139    
    124000   463.71993      41.085114      69351.124     -17315.932      6540.3985     -343.28205      0.87800927   
    125000   449.0036       41.230181      70088.331     -17057.21       6332.8363     -17.77968       0.86877414   
    126000   454.35625      41.200257      69935.839     -17280.779      6408.3312      361.96812      0.87066846   
    127000   457.10489      41.085144      69351.274     -17224.81       6447.0987     -356.53798      0.87800737   
    128000   450.86832      41.284998      70368.261     -17166.747      6359.1368      108.33789      0.86531809   
    129000   457.21992      41.068313      69266.077     -17360.225      6448.721      -161.173        0.87908732   
    130000   453.46135      41.190648      69886.916     -17294.137      6395.7093      282.9865       0.87127796   
    131000   458.21992      41.17328       69798.547     -17274.915      6462.8251     -226.85002      0.87238105   
    132000   458.74238      41.033185      69088.485     -17112.148      6470.1941      656.13267      0.881347     
    133000   457.82934      41.248995      70184.324     -17251.63       6457.3164     -530.61042      0.86758589   
    134000   453.57484      41.428795      71106.11      -16879.719      6397.31       -22.073299      0.85633892   
    135000   447.32863      41.217449      70023.422     -17163.92       6309.2122     -214.07784      0.86957946   
    136000   457.36794      40.968411      68761.818     -17165.428      6450.8086     -168.76001      0.88553403   
    137000   455.47312      41.032502      69085.038     -17156.702      6424.0838      578.87245      0.88139098   
    138000   454.51234      41.126972      69563.303     -17233.259      6410.5327     -159.65705      0.87533119   
    139000   455.60459      41.028772      69066.198     -17169.022      6425.938       76.848216      0.88163141   
    140000   460.12205      41.166803      69765.613     -17126.015      6489.6531      310.71548      0.87279286   
    141000   453.43275      41.303343      70462.104     -17089.284      6395.3059     -195.83729      0.86416564   
    142000   451.51539      41.16297       69746.127     -17064.153      6368.2632      41.153868      0.87303672   
    143000   445.22865      40.927405      68555.551     -17172.708      6279.5937      251.37131      0.88819838   
    144000   459.45209      41.195024      69909.189     -17093.493      6480.2039     -64.644823      0.87100036   
    145000   453.93745      40.974597      68792.974     -17237.823      6402.4244     -405.61168      0.88513297   
    146000   468.99732      41.099934      69426.196     -17309.32       6614.8318      189.5684       0.87705985   
    147000   454.70675      41.041919      69132.613     -17144.878      6413.2748      206.16131      0.88078444   
    148000   457.97735      41.292819      70408.258     -17047.201      6459.4039     -60.695206      0.86482653   
    149000   451.74801      40.898219      68408.991     -17248.048      6371.5441     -176.91443      0.89010127   
    150000   456.29149      41.32769       70586.782     -16934.88       6435.6262     -85.474325      0.86263926   
    151000   457.3478       41.136851      69613.446     -17345.065      6450.5247      242.9175       0.87470069   
    152000   457.67361      41.071422      69281.81      -17121.783      6455.1199      467.87854      0.87888768   
    153000   455.99743      41.410714      71013.046     -17110.395      6431.4788     -310.36377      0.85746117   
    154000   452.21551      41.306562      70478.581     -17018.038      6378.1378      263.50637      0.86396361   
    155000   456.58643      41.197276      69920.657     -17209.434      6439.7861     -234.06664      0.87085751   
    156000   453.78006      41.269885      70291.011     -17279.459      6400.2046     -571.89616      0.86626908   
    157000   451.52748      41.184731      69856.805     -17060.328      6368.4337     -74.224654      0.87165352   
    158000   463.57108      41.194891      69908.516     -17159.2        6538.299       805.60849      0.87100875   
    159000   454.30379      40.997611      68908.953     -17148.997      6407.5913      116.60717      0.88364322   
    160000   458.85156      41.124201      69549.242     -17149.969      6471.734      -373.74022      0.87550816   
    161000   449.55577      41.22571       70065.535     -17123.406      6340.6243     -49.155916      0.8690568    
    162000   448.68015      41.139365      69626.209     -17206.054      6328.2744     -132.96646      0.87454035   
    163000   453.69011      41.156731      69714.422     -17151.401      6398.9359      41.144204      0.87343375   
    164000   452.06141      41.227563      70074.984     -16967.084      6375.9643      190.0391       0.86893961   
    165000   448.77568      41.136882      69613.605     -17171.463      6329.6218     -245.15428      0.87469869   
    166000   461.04209      41.103963      69446.617     -17296.724      6502.6297      57.103959      0.87680195   
    167000   456.32677      41.008353      68963.134     -17378.13       6436.1238     -95.225159      0.88294899   
    168000   456.78742      41.282422      70355.089     -16940.848      6442.6209      273.8288       0.8654801    
    169000   464.69163      41.083693      69343.926     -17267.046      6554.1035      173.36721      0.8781004    
    170000   454.25817      41.137733      69617.922     -17143.917      6406.9479      166.9078       0.87464445   
    171000   458.00216      41.192183      69894.731     -17167.715      6459.7539     -358.49227      0.87118054   
    172000   452.27516      41.092726      69389.678     -17091.072      6378.9792      157.18749      0.87752143   
    173000   448.11964      41.248025      70179.374     -17271.009      6320.3688     -96.243079      0.86764708   
    174000   453.23799      40.982633      68833.457     -17211.212      6392.5591      411.5746       0.88461239   
    175000   454.63516      41.377168      70840.609     -17052.823      6412.265       39.073589      0.85954836   
    176000   455.52678      41.033844      69091.817     -17379.631      6424.8407     -37.631337      0.8813045    
    177000   458.82017      41.227186      70073.06      -17077.811      6471.2912      342.39082      0.86896347   
    178000   445.06261      40.971007      68774.891     -17179.154      6277.2518      353.82663      0.8853657    
    179000   451.06387      41.249644      70187.634     -16991.968      6361.8948      163.80955      0.86754497   
    180000   454.3219       41.248034      70179.416     -16937.451      6407.8468     -160.75279      0.86764657   
    181000   450.17478      41.128045      69568.752     -17175.841      6349.355      -148.62791      0.87526264   
    182000   456.90699      41.033683      69091.003     -17187.461      6444.3074     -119.36331      0.88131489   
    183000   450.98272      41.243255      70155.028     -17350.611      6360.7503      494.21741      0.86794819   
    184000   448.12685      41.446713      71198.41      -17121.524      6320.4706     -256.38297      0.85522878   
    185000   460.41195      41.227568      70075.007     -17028.948      6493.742      -502.70859      0.86893933   
    186000   449.8868       41.35563       70730.041     -17080.227      6345.2933      13.079868      0.86089204   
    187000   453.34347      41.051146      69179.25      -17318.661      6394.0468      14.051816      0.88019066   
    188000   452.74062      41.241237      70144.732     -17017.695      6385.544      -175.00875      0.86807558   
    189000   445.8333       41.358056      70742.489     -16921.163      6288.1218      121.04209      0.86074055   
    190000   454.15595      41.046381      69155.165     -17181.262      6405.5061     -40.927746      0.8804972    
    191000   451.34949      41.109959      69477.01      -17192.603      6365.9233     -184.27757      0.87641839   
    192000   459.1554       41.20953       69983.068     -17199.627      6476.0194      26.30998       0.87008088   
    193000   446.1805       41.209058      69980.667     -17234.655      6293.0188     -269.67416      0.87011073   
    194000   456.24439      41.094571      69399.021     -17313.102      6434.9619      108.09429      0.87740329   
    195000   458.60491      41.087485      69363.13      -17427.627      6468.2552     -336.50625      0.8778573    
    196000   455.35762      41.209422      69982.517     -17217.472      6422.4547     -382.13635      0.87008772   
    197000   451.94906      40.981997      68830.253     -17306.187      6374.3797      293.93333      0.88465358   
    198000   456.26077      41.425069      71086.922     -17151.38       6435.1929     -200.97687      0.85657006   
    199000   455.44434      41.142423      69641.735     -17192.464      6423.6779      485.77018      0.87434538   
    200000   450.69168      41.103516      69444.349     -17256.711      6356.6454     -360.56864      0.87683059   
    201000   458.23933      41.192632      69897.016     -17010.499      6463.0989     -181.66268      0.87115206   
    202000   451.83983      40.962266      68730.882     -17252.929      6372.8392      459.85797      0.8859326    
    203000   460.66591      41.099845      69425.747     -17155.534      6497.3239      103.37605      0.87706553   
    204000   460.83401      41.416134      71040.937     -17065.621      6499.6949      11.430872      0.85712453   
    205000   454.92999      41.292707      70407.685     -17218.698      6416.4234      433.47495      0.86483357   
    206000   450.81544      41.142744      69643.368     -17269.731      6358.3909      62.765705      0.87432489   
    207000   444.40065      41.273837      70311.202     -17009.859      6267.9154      523.75194      0.86602031   
    208000   460.40854      41.149996      69680.199     -17082.827      6493.6939      62.987297      0.87386273   
    209000   455.50749      41.461224      71273.215     -17105.92       6424.5685     -214.57326      0.85433118   
    210000   456.03762      41.257301      70226.731     -17026.621      6432.0456      313.76016      0.867062     
    211000   452.71951      41.196846      69918.47      -17242.438      6385.2463     -162.38019      0.87088475   
    212000   451.47928      41.263846      70260.158     -17227.051      6367.7538     -76.235101      0.86664948   
    213000   455.36747      41.334639      70622.395     -17048.183      6422.5937     -287.66515      0.86220425   
    214000   451.56772      41.492749      71435.918     -16986.573      6369.0012      277.26403      0.85238534   
    215000   445.99473      41.199839      69933.709     -17240.689      6290.3987      15.747458      0.87069497   
    216000   453.80302      40.992844      68884.919     -17273.065      6400.5284      105.36567      0.88395152   
    217000   455.84381      41.266815      70275.323     -17089.417      6429.3121      166.34915      0.86646246   
    218000   460.28107      41.217449      70023.42      -17123.949      6491.8961     -2.3875715      0.86957949   
    219000   458.08017      41.497974      71462.908     -16957.769      6460.8542     -186.69275      0.85206341   
    220000   456.19655      41.122565      69540.946     -17150.369      6434.2872      310.06188      0.87561262   
    221000   462.52245      41.144153      69650.521     -17019.39       6523.5089      201.54685      0.87423509   
    222000   458.12558      41.063101      69239.707     -17154.167      6461.4945     -319.88464      0.87942211   
    223000   454.68867      41.288022      70383.722     -17194.991      6413.0198     -126.29606      0.86512802   
    224000   448.01718      41.205365      69961.851     -17086.176      6318.9237      54.048846      0.87034474   
    225000   444.7244       41.134346      69600.732     -17245.504      6272.4817     -738.53341      0.87486048   
    226000   449.23062      41.390403      70908.611     -17232.481      6336.0383     -153.49319      0.85872405   
    227000   451.67177      41.212243      69996.894     -17178.457      6370.4688     -262.17456      0.86990902   
    228000   454.29767      41.269245      70287.74      -17137.838      6407.505       43.438981      0.86630939   
    229000   456.04526      41.270877      70296.077     -16953.864      6432.1534     -89.002054      0.86620665   
    230000   455.89265      41.212702      69999.229     -17161.37       6430.0009      212.86521      0.86988      
    231000   449.94831      41.001467      68928.399     -17283.857      6346.1608      684.63381      0.88339394   
    232000   457.28721      41.418722      71054.255     -17117.622      6449.6701     -207.07187      0.85696387   
    233000   446.18424      40.94578       68647.928     -17334.422      6293.0715     -101.0865       0.88700317   
    234000   456.3655       41.337475      70636.932     -17120.885      6436.6701      6.3043399      0.86202681   
    235000   454.46728      41.209073      69980.742     -17132.186      6409.8972      298.67527      0.8701098    
    236000   454.8385       41.187615      69871.477     -17217.088      6415.1329      48.325937      0.87147047   
    237000   448.61441      41.298517      70437.406     -17270.424      6327.3472     -237.21021      0.86446865   
    238000   454.30253      40.964445      68741.849     -17308.371      6407.5736     -136.06143      0.88579126   
    239000   463.63368      41.087736      69364.398     -17012.433      6539.182       201.715        0.87784125   
    240000   454.56791      41.209137      69981.065     -17192.014      6411.3165     -132.37562      0.87010578   
    241000   444.72563      41.162671      69744.611     -17234.134      6272.4991     -49.54159       0.87305568   
    242000   449.37984      41.227338      70073.833     -17134.392      6338.143       90.772048      0.86895388   
    243000   455.01588      40.973746      68788.684     -17193.296      6417.6348      79.407878      0.88518817   
    244000   456.22129      41.188499      69875.976     -17099.438      6434.6361      133.89754      0.87141437   
    245000   447.33783      41.210459      69987.802     -17235.042      6309.342       81.534439      0.87002203   
    246000   450.60274      40.874165      68288.359     -17372.094      6355.391       182.62861      0.89167364   
    247000   457.91415      41.058644      69217.166     -17197.35       6458.5125      73.998491      0.8797085    
    248000   454.69225      41.13675       69612.932     -17352.379      6413.0702      272.95712      0.87470715   
    249000   445.47667      41.028396      69064.302     -17337.531      6283.0919     -119.39027      0.88165561   
    250000   455.07614      41.254926      70214.603     -17141.238      6418.4847     -67.638751      0.86721176   
    251000   457.53987      41.295845      70423.735     -17043.248      6453.2337     -103.42827      0.86463646   
    252000   446.64102      41.345901      70680.136     -17021.164      6299.5141      311.38653      0.86149989   
    253000   459.74757      41.242465      70150.995     -17168.066      6484.3715      112.61942      0.86799809   
    254000   446.41117      41.258742      70234.09      -17004.961      6296.2723      188.87555      0.86697115   
    255000   453.54661      41.211386      69992.525     -17374.688      6396.9119      218.50348      0.86996332   
    256000   457.27559      41.05418       69194.591     -17170.428      6449.5061      212.03958      0.87999551   
    257000   448.87831      41.33609       70629.832     -17240.829      6331.0692     -604.02922      0.86211347   
    258000   453.23178      41.145532      69657.527     -17098.209      6392.4715      33.542423      0.87414715   
    259000   444.43317      41.332888      70613.419     -17013.565      6268.3742     -720.01204      0.86231385   
    260000   450.136        41.210307      69987.027     -17290.462      6348.808       40.53977       0.87003166   
    261000   454.13019      41.362762      70766.644     -17124.765      6405.1428      43.665101      0.86044675   
    262000   455.6663       41.123435      69545.358     -17156.286      6426.8084     -159.50267      0.87555706   
    263000   447.63328      41.405391      70985.667     -17087.727      6313.5091     -255.92962      0.85779189   
    264000   450.58033      41.115078      69502.97      -17211.009      6355.075       351.60174      0.87609104   
    265000   467.2764       41.124119      69548.829     -17284.51       6590.5595      1.4998179      0.87551337   
    266000   443.26176      41.417767      71049.341     -16954.091      6251.8523     -127.00754      0.85702314   
    267000   448.99492      41.045542      69150.926     -17314.647      6332.7139     -223.19676      0.88055118   
    268000   458.16356      41.26841       70283.472     -17213.236      6462.0303     -39.550796      0.866362     
    269000   449.88303      41.29001       70393.892     -17197.096      6345.24       -166.03466      0.86500302   
    270000   455.76915      40.863777      68236.305     -17518.085      6428.259       412.41241      0.89235385   
    271000   449.99549      41.012494      68984.029     -17159.25       6346.8262      10.202931      0.88268155   
    272000   448.0337       41.382278      70866.858     -17041.78       6319.1567     -225.92734      0.85922998   
    273000   451.75857      41.031422      69079.582     -17456.676      6371.693      -17.464612      0.88146059   
    274000   450.2958       41.124562      69551.075     -17182.953      6351.0619      425.18194      0.8754851    
    275000   454.9144       41.177051      69817.73      -17219.953      6416.2035      2.1840909      0.87214135   
    276000   455.20415      41.053841      69192.877     -17304.613      6420.2902     -164.71512      0.88001731   
    277000   454.90588      41.15449       69703.031     -17207.788      6416.0833      255.09502      0.87357649   
    278000   451.81824      41.113664      69495.8       -17412.934      6372.5346      328.28735      0.87618143   
    279000   454.76227      41.303509      70462.955     -17159.279      6414.0579     -40.950003      0.8641552    
    280000   452.6693       41.122427      69540.245     -17163.111      6384.5381     -143.17424      0.87562144   
    281000   446.40865      40.961805      68728.56      -17397.243      6296.2367      101.00543      0.88596254   
    282000   454.29425      41.187282      69869.785     -17187.146      6407.4568      238.72172      0.87149158   
    283000   451.25401      41.171807      69791.056     -17217.895      6364.5767     -158.49302      0.87247468   
    284000   457.77579      41.083879      69344.868     -17185.059      6456.5611      450.42318      0.87808847   
    285000   447.54371      41.230721      70091.086     -17022.681      6312.2458     -218.95825      0.86873999   
    286000   457.34691      41.076471      69307.364     -17214.64       6450.512      -456.65196      0.87856363   
    287000   442.34357      41.015342      68998.399     -17199.099      6238.902      -206.58155      0.88249771   
    288000   456.29253      41.099836      69425.701     -17148.479      6435.6409      493.46999      0.87706611   
    289000   443.93409      41.158052      69721.133     -17147.003      6261.3349     -369.42259      0.87334968   
    290000   445.7215       41.407312      70995.548     -17140.348      6286.545       57.297422      0.85767251   
    291000   457.43524      41.09404       69396.333     -17102.235      6451.7579     -33.676898      0.87743728   
    292000   467.71593      41.027902      69061.806     -17311.166      6596.7589     -258.56694      0.88168747   
    293000   450.905        40.920123      68518.963     -17223.415      6359.654       257.75593      0.88867266   
    294000   450.5763       41.123611      69546.25      -17245.661      6355.018       208.84759      0.87554583   
    295000   456.21362      41.188907      69878.056     -17356.596      6434.5279     -135.18423      0.87138843   
    296000   452.08813      41.184841      69857.361     -17200.44       6376.3412     -469.59897      0.87164657   
    297000   452.33129      41.201799      69943.688     -17174.633      6379.7708     -130.01565      0.87057075   
    298000   457.82205      41.209026      69980.503     -17216.508      6457.2136      524.57596      0.87011278   
    299000   453.80836      41.084816      69349.612     -17225.922      6400.6037      288.64102      0.8780284    
    300000   450.74632      41.071586      69282.638     -17209.338      6357.416      -322.86156      0.87887718   
    301000   453.41766      41.232196      70098.606     -17083.883      6395.0932      112.07529      0.86864679   
    302000   440.05014      41.236153      70118.794     -17053.719      6206.555      -64.255011      0.8683967    
    303000   459.11708      41.17184       69791.228     -17231.613      6475.4789      79.618011      0.87247253   
    304000   462.62122      40.988232      68861.671     -17219.241      6524.9021      135.66734      0.88424996   
    305000   450.59682      41.05219       69184.53      -17133.449      6355.3074      29.645441      0.88012348   
    306000   456.37973      41.219634      70034.558     -17209.092      6436.8708     -484.29716      0.86944119   
    307000   454.98177      41.201368      69941.495     -17108.846      6417.1537      64.94148       0.87059805   
    308000   444.76557      41.045943      69152.951     -17064.469      6273.0623      46.281072      0.8805254    
    309000   451.08297      41.172829      69796.256     -17100.827      6362.1642     -270.29447      0.87240968   
    310000   458.83131      41.196476      69916.586     -17067.858      6471.4484     -261.76538      0.87090822   
    311000   444.72667      41.050866      69177.835     -17349.628      6272.5137     -40.132654      0.88020866   
    312000   447.96829      41.171437      69789.179     -17204.846      6318.2341     -228.3894       0.87249815   
    313000   452.09904      41.120386      69529.892     -17329.852      6376.4951      209.39082      0.87575181   
    314000   441.71733      41.034235      69093.792     -17135.899      6230.0694      132.91546      0.88127931   
    315000   443.85203      41.247396      70176.16      -17196.721      6260.1777     -246.67811      0.86768682   
    316000   449.842        41.138733      69623.002     -17158.955      6344.6613     -258.71588      0.87458063   
    317000   450.16217      41.018269      69013.169     -17262.028      6349.1771     -27.583002      0.88230884   
    318000   457.31451      41.064754      69248.071     -17207.332      6450.0551     -338.19069      0.87931589   
    319000   451.90109      41.129221      69574.72      -17154.126      6373.7032      139.61652      0.87518756   
    320000   448.64237      41.100962      69431.407     -17323.485      6327.7415      418.5821       0.87699403   
    321000   459.17131      41.313788      70515.576     -17013.814      6476.2438     -20.697226      0.86351035   
    322000   454.23736      41.279351      70339.386     -17188.054      6406.6544     -275.57826      0.86567332   
    323000   458.90627      41.31229       70507.904     -16954.95       6472.5055      149.56088      0.8636043    
    324000   457.50743      41.505135      71499.91      -17070.895      6452.7761     -509.96458      0.85162246   
    325000   462.13953      41.086334      69357.3       -17376.007      6518.1081     -90.260303      0.87793108   
    326000   460.31407      41.263052      70256.099     -17270.544      6492.3615     -181.60488      0.86669955   
    327000   452.89817      41.002741      68934.821     -17136.442      6387.7662      119.15978      0.88331163   
    328000   451.3114       41.283345      70359.807     -17015.576      6365.3861     -342.33071      0.86542206   
    329000   453.65585      41.244346      70160.594     -17286.741      6398.4526      29.941216      0.86787933   
    330000   464.31743      41.265397      70268.077     -17149.116      6548.8257     -72.432911      0.86655181   
    331000   453.66724      40.762255      67728.989     -17384.89       6398.6133      732.21699      0.89903792   
    332000   458.29376      41.206707      69968.69      -17364.902      6463.8666     -94.593035      0.87025967   
    333000   453.49329      41.185975      69863.131     -17115.287      6396.1599     -5.4925625      0.87157458   
    334000   457.7261       41.220919      70041.109     -17269.781      6455.8603     -170.63345      0.86935987   
    335000   460.65502      41.277137      70328.07      -17184.297      6497.1703     -438.19286      0.8658126    
    336000   450.32233      41.038047      69113.047     -17194.769      6351.4361      729.05469      0.88103378   
    337000   464.21682      41.255301      70216.517     -17023.663      6547.4066     -248.71898      0.86718812   
    338000   461.33212      41.204279      69956.318     -17121.011      6506.7203      113.3216       0.87041358   
    339000   454.46588      41.05222       69184.683     -17322.574      6409.8775     -242.38023      0.88012154   
    340000   450.16855      40.987298      68856.966     -17296.43       6349.2671      170.47014      0.88431038   
    341000   444.52228      41.155757      69709.472     -17143.99       6269.6309     -20.433057      0.87349578   
    342000   457.93378      41.226459      70069.354     -17099.072      6458.7894     -413.66802      0.86900943   
    343000   452.09913      41.315848      70526.125     -17218.139      6376.4964     -312.69001      0.86338118   
    344000   446.3284       40.968725      68763.402     -17254.086      6295.1048     -38.858686      0.88551363   
    345000   450.28394      41.269104      70287.016     -17213.881      6350.8945      369.41173      0.86631831   
    346000   446.28323      41.162749      69745.005     -17204.706      6294.4677     -33.374074      0.87305075   
    347000   458.02808      41.13948       69626.793     -17084.99       6460.1194      338.99828      0.87453301   
    348000   456.6029       41.150416      69682.334     -17142.839      6440.0184     -101.89464      0.87383596   
    349000   451.68925      41.199269      69930.806     -17300.079      6370.7153     -454.92853      0.87073112   
    350000   448.46053      41.213483      70003.209     -17136.507      6325.1768     -546.79269      0.86983055   
    351000   457.31597      41.117882      69517.189     -17220.159      6450.0757     -432.83011      0.87591185   
    352000   450.05933      41.537603      71667.834     -16893.866      6347.7266     -298.21545      0.84962704   
    353000   442.65916      41.30983       70495.308     -17012.058      6243.3531     -140.07804      0.86375861   
    354000   445.71046      41.001108      68926.588     -17314.223      6286.3893     -29.844224      0.88341714   
    355000   449.55267      41.300148      70445.753     -17169.887      6340.5806     -354.54183      0.86436622   
    356000   454.22836      41.311392      70503.309     -17105.417      6406.5274      112.9688       0.86366059   
    357000   447.68061      41.124203      69549.253     -17279.374      6314.1766      156.6523       0.87550803   
    358000   461.87817      41.229091      70082.772     -17191.769      6514.4219     -82.073545      0.86884306   
    359000   454.39015      41.118467      69520.159     -17015.481      6408.8094     -83.372473      0.87587443   
    360000   451.59532      41.249638      70187.607     -17120.169      6369.3904     -39.944252      0.86754532   
    361000   438.59567      40.881173      68323.489     -17487.659      6186.0409     -27.708854      0.89121517   
    362000   454.81479      41.110864      69481.6       -17109.239      6414.7985      213.65264      0.8763605    
    363000   454.96996      41.231265      70093.86      -17115.968      6416.9871     -189.35453      0.8687056    
    364000   449.67399      41.270626      70294.796     -17092.995      6342.2917      164.89509      0.86622243   
    365000   452.0632       41.301548      70452.917     -17135.783      6375.9896     -220.5207       0.86427832   
    366000   453.06771      41.22405       70057.068     -17099.173      6390.1574     -100.32192      0.86916183   
    367000   444.94449      41.240309      70139.993     -17210.613      6275.5859     -578.46282      0.86813424   
    368000   459.26131      41.210012      69985.527     -17125.872      6477.5132      579.69546      0.87005031   
    369000   462.37999      41.033318      69089.16      -17280.627      6521.4996      548.23704      0.8813384    
    370000   461.10064      41.337844      70638.825     -17099.214      6503.4554      291.794        0.86200371   
    371000   454.02533      41.203821      69953.988     -17193.856      6403.6639     -142.8145       0.87044257   
    372000   445.05899      41.252755      70203.517     -17000.671      6277.2008      203.60916      0.86734871   
    373000   454.50725      40.973932      68789.622     -17187.019      6410.461       417.78856      0.8851761    
    374000   463.29444      41.139324      69626.002     -17286.954      6534.3972     -144.0509       0.87454295   
    375000   446.65203      41.113048      69492.675     -17189.416      6299.6694      44.891298      0.87622083   
    376000   456.09114      41.142487      69642.064     -17109.888      6432.8005     -74.777059      0.87434125   
    377000   451.50381      41.059066      69219.3       -17454.975      6368.0998      175.90953      0.87968138   
    378000   447.64955      41.510294      71526.574     -17115.087      6313.7386     -661.81151      0.85130499   
    379000   449.56591      41.134199      69599.983     -17149.464      6340.7673     -91.898056      0.87486989   
    380000   460.95212      41.024189      69043.058     -17229.554      6501.3607      206.78486      0.88192689   
    381000   449.24348      41.20342       69951.944     -17109.056      6336.2198     -56.404139      0.870468     
    382000   441.14575      40.894568      68390.671     -17262.624      6222.0077      766.07534      0.8903397    
    383000   453.00916      41.163337      69747.993     -17351.316      6389.3315      80.036027      0.87301335   
    384000   453.67429      41.229375      70084.22      -17109.468      6398.7128      80.008127      0.8688251    
    385000   453.68834      41.09985       69425.771     -17311.48       6398.9109     -96.485148      0.87706523   
    386000   452.16139      41.440785      71167.863     -16896.821      6377.3744     -227.59572      0.85559587   
    387000   458.08982      41.051219      69179.62      -17335.095      6460.9902      155.62696      0.88018595   
    388000   461.0309       41.320059      70547.689     -17052.773      6502.4718     -334.78251      0.86311728   
    389000   455.23464      41.143607      69647.748     -17228.29       6420.7202      133.11223      0.87426989   
    390000   456.11444      41.063513      69241.791     -17155.701      6433.1291      269.80819      0.87939565   
    391000   443.96842      41.163393      69748.277     -17222.008      6261.8192     -53.758763      0.8730098    
    392000   456.49312      41.269985      70291.517     -16961.524      6438.4701     -368.42397      0.86626284   
    393000   452.6668       41.067706      69263.006     -17102.542      6384.5029     -140.15885      0.87912629   
    394000   448.50536      41.30467       70468.899     -17136.646      6325.809       227.20107      0.86408232   
    395000   461.87863      41.220667      70039.823     -17129.961      6514.4284      67.783554      0.86937583   
    396000   455.55025      41.189659      69881.882     -17199.646      6425.1717     -156.51891      0.87134072   
    397000   455.18759      41.084678      69348.912     -17243.153      6420.0566      83.650893      0.87803727   
    398000   454.03243      40.815506      67994.778     -17257.839      6403.764       394.41343      0.89552362   
    399000   453.92437      41.095737      69404.931     -17288.483      6402.2399      258.44199      0.87732857   
    400000   445.17842      41.175443      69809.55      -17277.562      6278.8853     -107.86012      0.87224354   
    401000   449.78508      41.080749      69329.021     -17140.498      6343.8586     -263.2731       0.87828919   
    402000   457.45209      41.526637      71611.089     -16950.74       6451.9956     -472.03501      0.85030029   
    403000   454.38583      41.172981      69797.028     -17021.585      6408.7484     -130.10527      0.87240003   
    404000   458.40439      41.16008       69731.442     -17136.235      6465.427      -38.954635      0.87322057   
    405000   447.71222      41.282376      70354.853     -17180.684      6314.6224     -308.04545      0.865483     
    406000   448.68957      41.173961      69802.011     -17131.511      6328.4072      152.06765      0.87233775   
    407000   454.39404      41.140215      69630.527     -17197.06       6408.8642      91.318797      0.87448611   
    408000   447.33978      41.114317      69499.107     -17175.068      6309.3695      460.90938      0.87613974   
    409000   456.86514      41.203586      69952.79      -17129.628      6443.7171      417.47506      0.87045748   
    410000   448.05763      40.981655      68828.527     -17326.27       6319.4942     -4.5461418      0.88467576   
    411000   452.98482      41.175367      69809.165     -17082.678      6388.9883     -38.477182      0.87224836   
    412000   461.29671      41.116536      69510.362     -17151.98       6506.2208     -57.614872      0.87599787   
    413000   464.3948       41.130675      69582.096     -17166.238      6549.917       208.65169      0.87509478   
    414000   449.7692       41.038456      69115.115     -17252.403      6343.6345      36.102312      0.88100742   
    415000   457.3005       41.252764      70203.564     -17055.003      6449.8575     -319.64952      0.86734812   
    416000   445.4391       40.99293       68885.35      -17161.75       6282.562      -193.79239      0.883946     
    417000   443.53796      41.191186      69889.655     -17128.505      6255.748       648.64064      0.87124381   
    418000   460.83787      41.364923      70777.733     -17220.4        6499.7493      35.837263      0.86031195   
    419000   458.17036      41.092276      69387.396     -17277.325      6462.1261      430.97813      0.87755029   
    420000   459.02913      40.890182      68368.67      -17178.543      6474.2384     -61.329423      0.89062621   
    421000   454.55503      41.074022      69294.968     -17290.513      6411.1349     -187.69161      0.87872079   
    422000   456.02508      41.024612      69045.195     -17237.632      6431.8687      177.99843      0.88189959   
    423000   470.79148      41.094904      69400.708     -17184.359      6640.137       591.73971      0.87738196   
    424000   455.50055      41.404192      70979.502     -17096.783      6424.4707     -218.30642      0.85786639   
    425000   445.05761      41.264484      70263.417     -16985.941      6277.1814     -212.44748      0.86660929   
    426000   446.3418       41.17116       69787.768     -17176.31       6295.2939     -127.35139      0.87251579   
    427000   448.6912       41.035435      69099.853     -17191.263      6328.4302     -43.043324      0.88120201   
    428000   460.97457      41.248347      70181.017     -17106.068      6501.6774      68.231339      0.86762678   
    429000   452.46581      41.143842      69648.941     -17151.359      6381.6681      273.92883      0.87425492   
    430000   453.92494      41.31834       70538.887     -16994.955      6402.2479     -436.76641      0.86322498   
    431000   454.89538      41.084467      69347.845     -17249.222      6415.9353     -263.45702      0.87805078   
    432000   448.34495      41.075005      69299.942     -17345.29       6323.5466      81.921973      0.87865772   
    433000   453.76345      41.256926      70224.814     -17233.868      6399.9703     -157.49303      0.86708566   
    434000   449.97923      41.225958      70066.8       -17237.801      6346.5969     -184.00139      0.86904111   
    435000   452.0084       41.214542      70008.607     -17160.959      6375.2166     -420.38552      0.86976347   
    436000   452.9842       41.297178      70430.557     -17230.126      6388.9796      134.65402      0.86455272   
    437000   463.48562      41.171122      69787.578     -17354.607      6537.0937      243.16865      0.87251817   
    438000   463.14448      40.941484      68626.327     -17143.871      6532.2821      65.006584      0.88728236   
    439000   441.93689      41.276603      70325.338     -17217.978      6233.1661     -206.22475      0.86584624   
    440000   460.43467      41.145111      69655.39      -17293.946      6494.0625      343.77956      0.87417397   
    441000   459.73154      41.290296      70395.35      -17102.857      6484.1454     -162.57459      0.8649851    
    442000   457.76419      41.205143      69960.721     -17189.609      6456.3975     -159.06607      0.87035881   
    443000   454.67796      41.054305      69195.225     -17335.654      6412.8686      245.65044      0.87998744   
    444000   442.53085      41.272422      70303.972     -17014.041      6241.5435     -257.7355       0.86610938   
    445000   458.70264      41.152061      69690.693     -17185.729      6469.6336      198.41845      0.87373115   
    446000   453.55837      40.957548      68707.138     -17243.514      6397.0777      223.67526      0.88623877   
    447000   450.55757      41.033867      69091.934     -17294.844      6354.7539      237.46224      0.88130301   
    448000   452.71826      41.081603      69333.343     -17271.179      6385.2287     -28.147054      0.87823444   
    449000   448.36287      41.205714      69963.629     -17043.107      6323.7994     -75.943201      0.87032263   
    450000   449.56188      41.125497      69555.822     -17120.346      6340.7105      254.40468      0.87542535   
    451000   456.72485      41.122194      69539.061     -17186.708      6441.7385      631.85317      0.87563635   
    452000   437.93494      41.252429      70201.854     -17203.618      6176.7218      235.16057      0.86736924   
    453000   450.14533      41.312899      70511.022     -17177.984      6348.9396     -525.31666      0.86356611   
    454000   449.42543      41.243028      70153.871     -17167.365      6338.7859     -61.573408      0.86796251   
    455000   448.5847       41.328015      70588.45      -17084.396      6326.9281     -86.554028      0.86261888   
    456000   453.04375      41.190727      69887.319     -17000.003      6389.8195      282.05746      0.87127294   
    457000   454.61554      41.25691       70224.73      -17240.299      6411.9883     -386.34342      0.8670867    
    458000   469.50618      41.23526       70114.237     -17210.588      6622.0088      25.170868      0.86845315   
    459000   459.02031      41.292934      70408.845     -17088.534      6474.1141      516.04534      0.86481932   
    460000   459.45026      41.197601      69922.312     -17101.204      6480.1782      651.0606       0.87083689   
    461000   451.67565      41.404698      70982.104     -17116.409      6370.5235     -89.600481      0.85783494   
    462000   450.44036      41.104171      69447.671     -17265          6353.1007     -218.41631      0.87678865   
    463000   461.35146      41.031496      69079.956     -17324.849      6506.9931     -171.62595      0.88145582   
    464000   461.95464      41.260778      70244.485     -17172.445      6515.5004     -102.08555      0.86684285   
    465000   456.72223      41.488626      71414.623     -16919.909      6441.7015     -643.94041      0.85263952   
    466000   458.6077       41.022389      69033.971     -17026.876      6468.2945      203.17147      0.88204297   
    467000   448.00235      41.462852      71281.614     -17129.456      6318.7145      220.81371      0.85423051   
    468000   455.95578      41.141476      69636.928     -17204.546      6430.8913      53.119759      0.87440573   
    469000   454.25773      41.253224      70205.914     -17113.831      6406.9416      107.17333      0.86731909   
    470000   449.69531      41.272583      70304.795     -16993.533      6342.5924      444.12662      0.86609923   
    471000   460.05151      41.411813      71018.701     -17049.299      6488.6583      234.74753      0.85739289   
    472000   466.41536      41.250403      70191.513     -16957.01       6578.4154      223.53105      0.86749704   
    473000   450.99661      41.222127      70047.264     -17160.635      6360.9461     -143.38546      0.86928348   
    474000   451.66188      41.053086      69189.057     -17269.989      6370.3293     -354.01203      0.88006589   
    475000   453.96701      41.044799      69147.169     -17160.975      6402.8412     -80.931741      0.88059903   
    476000   448.34682      41.213375      70002.659     -17234.83       6323.573       22.423578      0.86983738   
    477000   460.84275      41.347666      70689.19      -17292.359      6499.8181     -247.88766      0.86138954   
    478000   453.30523      41.045508      69150.752     -17337.861      6393.5074     -194.52358      0.88055339   
    479000   439.28723      41.047529      69160.967     -17243.492      6195.7947      532.54875      0.88042334   
    480000   455.15622      41.33581       70628.397     -17132.311      6419.6142     -351.97069      0.86213098   
    481000   448.83742      41.069102      69270.068     -17122.266      6330.4926      696.33378      0.87903666   
    482000   459.21626      41.224552      70059.631     -17145.605      6476.8778      86.328915      0.86913003   
    483000   450.92998      41.237504      70125.686     -17111.449      6360.0064     -430.3405       0.86831136   
    484000   456.11227      40.934799      68592.715     -17388.027      6433.0984      111.81959      0.88771714   
    485000   453.71011      41.35111       70706.852     -17003.92       6399.218      -324.6266       0.86117438   
    486000   460.05144      41.158526      69723.543     -17271.717      6488.6573     -163.42649      0.87331949   
    487000   454.96283      41.097717      69414.963     -17190.782      6416.8866     -119.36415      0.87720179   
    488000   452.02592      41.327239      70584.472     -17284.684      6375.4638     -221.34372      0.86266749   
    489000   455.87771      41.105215      69452.961     -17094.327      6429.7901      140.19026      0.87672186   
    490000   455.51464      41.144014      69649.816     -17282.955      6424.6694     -238.15034      0.87424394   
    491000   453.99155      41.33128       70605.178     -17226.57       6403.1874     -504.24298      0.8624145    
    492000   440.80932      41.058124      69214.535     -17151.939      6217.2627     -16.116323      0.87974194   
    493000   446.36495      41.137861      69618.576     -17206.168      6295.6203     -0.530046       0.87463624   
    494000   448.48039      41.207586      69973.166     -17113.207      6325.4569      354.41751      0.87020401   
    495000   467.32947      41.167849      69770.933     -17175.853      6591.3081      154.11122      0.87272631   
    496000   454.8747       41.382273      70866.831     -17124.297      6415.6435     -85.817146      0.85923031   
    497000   446.61244      41.235732      70116.643     -17235.804      6299.111      -183.59211      0.86842334   
    498000   457.35158      41.073315      69291.39      -17021.947      6450.5779     -33.140471      0.87876617   
    499000   448.04809      41.175082      69807.714     -17250.401      6319.3596     -46.588359      0.87226649   
    500000   456.18495      41.271851      70301.057     -17136.032      6434.1236     -22.495276      0.86614529   
    501000   459.26356      41.159548      69728.734     -17090.1        6477.5448     -169.80335      0.87325448   
    502000   456.33822      41.175657      69810.639     -17186.878      6436.2853      600.28603      0.87222994   
    503000   450.18311      41.213676      70004.196     -17024.837      6349.4725     -110.94805      0.86981828   
    504000   462.89908      41.260251      70241.793     -17090.377      6528.821       20.349782      0.86687607   
    505000   443.43537      41.299752      70443.73      -17059.399      6254.3009     -547.47806      0.86439105   
    506000   451.7753       41.357574      70740.019     -17247.268      6371.9289      272.57881      0.86077062   
    507000   452.41918      41.247348      70175.918     -17038.126      6381.0105     -622.25955      0.86768982   
    508000   453.4798       41.4577        71255.045     -17067.732      6395.9695     -275.34739      0.85454903   
    509000   451.58496      41.27658       70325.224     -17295.383      6369.2444      79.116763      0.86584764   
    510000   451.1252       40.860126      68218.017     -17170.176      6362.7599      350.9718       0.89259307   
    511000   452.25038      41.052116      69184.156     -17317.11       6378.6296     -529.36495      0.88012824   
    512000   458.92767      41.383117      70871.167     -17215.062      6472.8074      134.49483      0.85917775   
    513000   452.53601      41.190472      69886.018     -17407.52       6382.6582     -741.46145      0.87128915   
    514000   451.60296      41.188899      69878.011     -17280.126      6369.4983     -401.78917      0.87138899   
    515000   460.68462      41.177953      69822.318     -17149.523      6497.5878      106.62939      0.87208404   
    516000   447.66919      41.443604      71182.388     -17109.614      6314.0156     -401.36716      0.85542128   
    517000   451.41099      41.251826      70198.776     -17246.606      6366.7907     -221.51105      0.86740728   
    518000   459.29849      41.118491      69520.279     -17179.793      6478.0376      90.14235       0.87587291   
    519000   452.32254      40.910633      68471.302     -17343.204      6379.6473      236.64413      0.88929124   
    520000   455.21012      41.13613       69609.787     -17181.227      6420.3744      266.22482      0.87474667   
    521000   460.57389      41.047221      69159.41      -17134.638      6496.0261      233.06424      0.88044316   
    522000   445.20818      41.013761      68990.419     -17240.183      6279.305       454.65362      0.88259978   
    523000   463.32672      41.220734      70040.165     -17122.551      6534.8525      146.86157      0.86937159   
    524000   443.55173      41.148877      69674.515     -17114.674      6255.9421      126.28886      0.87393403   
    525000   456.11171      41.03024       69073.612     -17190.386      6433.0906      120.13641      0.88153677   
    526000   462.89074      41.336346      70631.146     -17022.734      6528.7034     -197.96127      0.86209743   
    527000   448.20868      41.295028      70419.556     -17064.657      6321.6246      20.274037      0.86468778   
    528000   446.0933       41.13828       69620.701     -17180.997      6291.789      -482.0762       0.87460955   
    529000   453.85214      41.384214      70876.807     -17036.56       6401.2211      151.64663      0.85910938   
    530000   461.0039       41.200886      69939.039     -17185.493      6502.091      -567.57129      0.87062862   
    531000   450.5212       41.082118      69335.951     -17392.589      6354.2408     -278.32078      0.87820141   
    532000   452.87608      41.4143        71031.499     -17131.451      6387.4547     -17.825729      0.85723841   
    533000   460.42355      41.064741      69248.006     -17281.005      6493.9057      296.22908      0.87931672   
    534000   460.4604       41.229329      70083.986     -17093.837      6494.4254      67.326016      0.86882799   
    535000   450.15348      41.201363      69941.468     -17163.023      6349.0544      330.24173      0.87059839   
    536000   451.5004       41.381907      70864.95      -17073.163      6368.0518     -215.59478      0.85925311   
    537000   455.12637      41.15981       69730.066     -17329.371      6419.1932      301.64132      0.8732378    
    538000   453.2585       41.294197      70415.308     -17025.555      6392.8484      689.7906       0.86473994   
    539000   459.65135      41.052892      69188.08      -17252.476      6483.0144      470.90585      0.88007833   
    540000   450.96381      41.323394      70564.772     -17040.828      6360.4836     -40.331943      0.86290833   
    541000   451.8116       41.246642      70172.312     -17248.268      6372.441      -220.52955      0.86773441   
    542000   449.12289      41.261411      70247.716     -17000.404      6334.5189     -11.101328      0.86680297   
    543000   451.12732      41.253059      70205.072     -16959.362      6362.7898      194.88707      0.86732949   
    544000   455.42334      41.301197      70451.123     -17136.192      6423.3817     -274.70834      0.86430033   
    545000   456.97931      41.151924      69689.993     -17216.683      6445.3274     -162.29036      0.87373993   
    546000   462.40687      41.182935      69847.664     -17063.386      6521.8788      50.547721      0.87176758   
    547000   460.96714      41.196218      69915.272     -17221.829      6501.5726     -179.01902      0.87092458   
    548000   447.01493      41.291912      70403.617     -17376.125      6304.7878     -71.183835      0.86488354   
    549000   452.91179      41.361208      70758.668     -17092.508      6387.9582      199.76044      0.86054375   
    550000   457.00754      41.114505      69500.064     -17347.78       6445.7256      236.91617      0.87612767   
    551000   454.4693       41.112685      69490.833     -17234.145      6409.9257      167.94915      0.87624406   
    552000   459.65086      41.166312      69763.12      -17068.507      6483.0074      213.422        0.87282406   
    553000   460.28183      41.329335      70595.212     -16919.087      6491.9068      720.10283      0.86253625   
    554000   460.36348      41.226024      70067.135     -17219.847      6493.0584      298.97985      0.86903695   
    555000   447.61429      41.293928      70413.932     -17129.062      6313.2412      133.99262      0.86475684   
    556000   443.79408      41.15244       69692.619     -16967.583      6259.3602      398.90733      0.87370701   
    557000   457.9251       41.560427      71786.042     -17044.451      6458.6669     -53.014228      0.84822798   
    558000   445.60243      41.247918      70178.827     -17073.982      6284.8656      86.425688      0.86765384   
    559000   450.63843      41.269515      70289.119     -16964.589      6355.8943      157.96349      0.8662924    
    560000   461.30538      41.180399      69834.763     -17273.676      6506.3431      68.304557      0.87192864   
    561000   451.80464      41.012578      68984.45      -17337.767      6372.3428      277.3922       0.88267616   
    562000   451.64152      41.264331      70262.634     -17119.961      6370.0422     -451.67183      0.86661894   
    563000   453.43553      41.334748      70622.955     -17143.605      6395.3452     -157.3371       0.86219742   
    564000   447.02619      41.348795      70694.978     -17047.779      6304.9466     -49.620697      0.86131902   
    565000   446.32392      41.224777      70060.777     -17240.748      6295.0416     -118.43689      0.86911581   
    566000   461.93217      40.989529      68868.206     -17119.7        6515.1835      276.77527      0.88416604   
    567000   449.85905      41.072037      69284.92      -17321.796      6344.9018      565.68026      0.87884823   
    568000   450.39238      41.182949      69847.736     -17011.103      6352.424       121.76343      0.87176669   
    569000   448.55732      40.959522      68717.073     -17422          6326.542      -20.544688      0.88611064   
    570000   443.71693      41.171402      69788.996     -17258.209      6258.2721      644.85007      0.87250043   
    571000   455.71913      41.249669      70187.765     -17025.024      6427.5535      76.377058      0.86754336   
    572000   457.05451      41.244901      70163.429     -17358.588      6446.388       8.3652208      0.86784427   
    573000   455.18263      41.086249      69356.868     -17192.797      6419.9867      148.0198       0.87793654   
    574000   446.81112      40.972714      68783.49      -17251.063      6301.9132      152.87997      0.88525501   
    575000   446.35457      41.148016      69670.144     -17256.774      6295.474      -130.17011      0.87398885   
    576000   456.62205      41.079015      69320.241     -17125.926      6440.2885     -376.12155      0.87840043   
    577000   448.67079      41.045984      69153.158     -17258.979      6328.1424      46.931788      0.88052275   
    578000   447.34319      41.25135       70196.345     -17236.534      6309.4177     -192.21838      0.86743733   
    579000   448.55609      41.311741      70505.094     -16998.739      6326.5246     -45.160763      0.86363873   
    580000   455.1577       41.242664      70152.014     -17091.73       6419.635       5.3244253      0.86798547   
    581000   456.67333      41.137794      69618.234     -17110.985      6441.0117      64.604748      0.87464054   
    582000   445.77759      41.065221      69250.434     -17240.364      6287.3361      407.1793       0.87928588   
    583000   452.01526      41.042765      69136.89      -17303.08       6375.3134     -50.910486      0.88072994   
    584000   453.33125      41.122787      69542.071     -17165.885      6393.8743      306.42492      0.87559845   
    585000   453.01291      41.32821       70589.448     -16927.277      6389.3844     -361.80849      0.86260668   
    586000   452.55899      41.162466      69743.566     -17127.574      6382.9824     -299.29216      0.87306877   
    587000   456.56701      41.296333      70426.237     -17105.418      6439.5122     -246.92792      0.86460575   
    588000   456.82892      40.997794      68909.876     -17168.043      6443.2062      187.54563      0.88363138   
    589000   459.38881      41.306315      70477.316     -17077.384      6479.3114      167.19341      0.86397912   
    590000   458.36082      41.137911      69618.825     -17076.316      6464.8124      233.63614      0.87463311   
    591000   449.69918      41.194406      69906.044     -17205.154      6342.6469     -77.005149      0.87103955   
    592000   460.49723      41.375825      70833.711     -16974.156      6494.9449     -166.73378      0.85963207   
    593000   453.79717      41.260869      70244.951     -17254.598      6400.4458      198.10257      0.8668371    
    594000   448.05445      41.245079      70164.334     -17174.083      6319.4494     -103.88735      0.86783307   
    595000   451.91723      41.26154       70248.379     -17242.225      6373.9308      142.60627      0.8667948    
    596000   451.36146      41.142759      69643.443     -17178.767      6366.0922      8.5053477      0.87432394   
    597000   455.02193      41.430722      71116.031     -17017.452      6417.7201      41.685033      0.85621945   
    598000   455.0217       41.063831      69243.4       -17100.996      6417.7169      160.03553      0.87937521   
    599000   444.16357      41.063004      69239.216     -17230.526      6264.5716     -197.9274       0.87942834   
    600000   449.05155      41.369456      70801.004     -16886.408      6333.5127      99.490076      0.86002918   
    601000   456.53178      41.072245      69285.975     -17217.83       6439.0154     -106.8551       0.87883485   
    602000   441.99685      41.503412      71491.008     -16996.805      6234.0118     -509.96784      0.85172851   
    603000   449.77865      41.134132      69599.642     -17066.133      6343.7679     -225.95658      0.87487417   
    604000   452.75427      41.159456      69728.271     -17068.693      6385.7365     -126.90134      0.87326028   
    605000   449.16749      41.322801      70561.735     -17104.43       6335.1479      495.73214      0.86294547   
    606000   459.60504      41.117179      69513.622     -17039.097      6482.3612      285.31247      0.87595679   
    607000   457.37924      41.108271      69468.452     -17220.091      6450.968       598.22609      0.87652635   
    608000   454.9148       41.396831      70941.653     -17256.369      6416.2092     -615.94493      0.85832408   
    609000   451.20076      41.237711      70126.741     -17212.779      6363.8255     -114.0775       0.8682983    
    610000   450.78977      41.078552      69317.895     -17137.267      6358.0288      351.64407      0.87843016   
    611000   450.28869      41.122232      69539.257     -17153.591      6350.9616     -684.0425       0.87563388   
    612000   450.75346      40.902254      68429.241     -17328.68       6357.5168      603.29088      0.88983786   
    613000   445.12752      41.273515      70309.559     -17049.934      6278.1673     -303.93638      0.86604056   
    614000   449.55953      40.954216      68690.369     -17224.712      6340.6774     -108.44665      0.88645512   
    615000   458.94426      41.292614      70407.211     -17005.2        6473.0414      236.30169      0.86483939   
    616000   449.53398      41.090655      69379.187     -17060.63       6340.317      -51.053696      0.87765412   
    617000   442.60662      41.170122      69782.491     -17316.904      6242.6121     -321.68084      0.87258176   
    618000   454.49013      41.221955      70046.388     -17126.403      6410.2194      256.98199      0.86929436   
    619000   443.50517      41.098814      69420.521     -17230.664      6255.2854     -333.9988       0.87713155   
    620000   455.13573      41.300281      70446.433     -17002.95       6419.3252     -145.72393      0.86435788   
    621000   446.79944      41.177719      69821.127     -17185.223      6301.7484      163.23509      0.87209891   
    622000   443.72997      41.319792      70546.322     -17020.12       6258.456      -136.54462      0.86313401   
    623000   447.09213      41.18265       69846.215     -17069.837      6305.8767      354.16494      0.87178567   
    624000   459.55724      41.221813      70045.666     -17150.589      6481.6871     -109.82987      0.86930331   
    625000   453.18633      40.991756      68879.435     -17246.18       6391.8304      66.095908      0.88402191   
    626000   453.82605      41.154535      69703.262     -17208.715      6400.8532     -250.79753      0.87357359   
    627000   460.86398      41.079198      69321.165     -17338.486      6500.1175     -216.4766       0.87838872   
    628000   453.87617      41.058104      69214.435     -17169.603      6401.56        252.88565      0.87974321   
    629000   446.23122      41.187677      69871.796     -17368.999      6293.7341     -284.49655      0.8714665    
    630000   453.70404      41.170941      69786.654     -17154.1        6399.1323     -127.87699      0.87252972   
    631000   450.81342      41.215391      70012.934     -17104.772      6358.3625     -441.82675      0.86970972   
[...]
   4846000   450.85838      41.193927      69903.607     -17165.407      6358.9965      342.82431      0.87106993   
   4847000   452.33011      41.261364      70247.478     -17128.108      6379.7542      181.17024      0.86680592   
   4848000   455.96476      40.95257       68682.086     -17220.92       6431.018       144.49484      0.88656203   
   4849000   454.53757      41.182244      69844.146     -17110.73       6410.8886      362.01195      0.8718115    
   4850000   444.95607      41.26595       70270.905     -17016.745      6275.7492     -54.866251      0.86651694   
   4851000   453.6521       41.202962      69949.612     -16978.561      6398.3997     -7.4500711      0.87049703   
   4852000   445.88164      41.364525      70775.691     -17169.48       6288.8036      156.9192       0.86033676   
   4853000   463.73157      41.332759      70612.759     -17212.401      6540.5626      46.247558      0.86232191   
   4854000   456.31118      41.146013      69659.969     -17408.298      6435.904       62.292816      0.87411652   
   4855000   464.16143      41.135575      69606.968     -17033.908      6546.6255      100.08189      0.8747821    
   4856000   449.35393      41.116855      69511.981     -17204.732      6337.7775     -181.23412      0.87597748   
   4857000   439.57134      40.958524      68712.05      -17373.966      6199.802      -297.24543      0.88617542   
   4858000   466.28216      41.494144      71443.124     -17164.968      6576.5366     -516.15275      0.85229936   
   4859000   442.92618      41.228221      70078.337     -17109.606      6247.1192     -29.505616      0.86889803   
   4860000   442.54936      41.114491      69499.992     -17421.548      6241.8045     -300.0622       0.87612858   
   4861000   458.58203      40.963919      68739.203     -17258.233      6467.9325      475.8274       0.88582536   
   4862000   444.58998      41.296548      70427.334     -17249.808      6270.5858      136.7473       0.86459228   
   4863000   451.39293      41.263732      70259.574     -17124.325      6366.536      -611.80325      0.86665669   
   4864000   456.81297      41.238348      70129.988     -17036.46       6442.9812     -24.944327      0.86825809   
   4865000   449.3881       41.156218      69711.812     -17184.317      6338.2594     -272.46228      0.87346645   
   4866000   462.32247      41.21529       70012.419     -16963.028      6520.6884      124.52976      0.86971612   
   4867000   456.19506      41.219056      70031.614     -17140.611      6434.2661     -674.46152      0.86947774   
   4868000   454.26303      41.303029      70460.497     -17140.532      6407.0164     -85.833624      0.86418536   
   4869000   463.07819      41.17913       69828.303     -17093.485      6531.3471      152.74656      0.8720093    
   4870000   451.9445       41.185256      69859.473     -17274.817      6374.3154      1.6490024      0.87162022   
   4871000   449.82785      41.136927      69613.83      -17246.355      6344.4618     -230.95623      0.87469587   
   4872000   460.7164       41.263274      70257.237     -17144.509      6498.0361     -394.25198      0.86668551   
   4873000   454.9127       41.035121      69098.265     -17261.275      6416.1795      488.62011      0.88122226   
   4874000   456.53082      40.932849      68582.911     -17426.936      6439.0017      133.79079      0.88784404   
   4875000   456.00978      41.271086      70297.143     -17213.464      6431.6529     -286.45339      0.86619351   
   4876000   445.98121      41.27988       70342.094     -17071.594      6290.208      -14.332859      0.86563999   
   4877000   448.01334      41.140214      69630.522     -17036.726      6318.8696      126.36794      0.87448618   
   4878000   441.92806      41.282015      70353.009     -17064.636      6233.0416      285.43566      0.86550569   
   4879000   455.92071      41.165955      69761.304     -17160.379      6430.3967     -321.1522       0.87284678   
   4880000   451.71133      40.984825      68844.5       -17361.189      6371.0268     -352.30229      0.8844705    
   4881000   453.38983      41.085686      69354.018     -17127.026      6394.7006      55.279601      0.87797263   
   4882000   448.6024       41.380369      70857.05      -17092.179      6327.1777     -207.10531      0.85934892   
   4883000   455.62738      41.131966      69588.65      -16997.777      6426.2594      162.80855      0.87501237   
   4884000   452.96925      41.160514      69733.644     -17200.206      6388.7686     -121.35702      0.873193     
   4885000   449.78294      41.385368      70882.735     -16906.59       6343.8284     -374.05217      0.85903752   
   4886000   451.44059      41.073428      69291.963     -17247.526      6367.2082     -217.48554      0.8787589    
   4887000   451.2187       41.296325      70426.192     -17256.691      6364.0786      11.197643      0.8646063    
   4888000   448.61254      41.311464      70503.676     -17139.626      6327.3207      105.03457      0.8636561    
   4889000   447.93003      41.035998      69102.7       -17305.504      6317.6945     -50.973444      0.88116571   
   4890000   452.25007      41.215153      70011.722     -17143.144      6378.6252     -343.21806      0.86972478   
   4891000   454.42614      41.107583      69464.967     -17229.214      6409.317       260.76127      0.87657034   
   4892000   446.23822      41.376627      70837.828     -17196.756      6293.8329     -368.08747      0.8595821    
   4893000   455.25701      41.21333       70002.431     -17166.738      6421.0358     -218.30576      0.86984021   
   4894000   452.59299      41.328122      70588.999     -17045.756      6383.4618     -280.43259      0.86261217   
   4895000   455.01564      41.250775      70193.409     -17062.383      6417.6314      187.71764      0.8674736    
   4896000   441.95241      41.33969       70648.29      -17191.203      6233.385       1.7648073      0.86188823   
   4897000   453.04813      41.269497      70289.026     -17147.962      6389.8812     -247.29358      0.86629355   
   4898000   464.91459      41.242779      70152.601     -17130.382      6557.2482     -135.99342      0.86797821   
   4899000   460.39864      41.32051       70549.999     -17112.575      6493.5544     -280.11846      0.86308902   
   4900000   454.14748      41.110968      69482.13      -17178.321      6405.3868     -145.68037      0.87635381   
   4901000   454.91698      41.126427      69560.539     -17023.637      6416.2399      387.67109      0.87536597   
   4902000   454.00544      41.229924      70087.019     -17175.308      6403.3833     -221.75761      0.8687904    
   4903000   448.44335      41.281808      70351.951     -17102.36       6324.9345      38.398344      0.86551871   
   4904000   446.58495      41.031608      69080.52      -17098.32       6298.7232      313.71785      0.88144862   
   4905000   452.20965      41.320394      70549.408     -17021.875      6378.0551      3.3525825      0.86309625   
   4906000   449.1551       41.169916      69781.445     -17276.838      6334.9731     -178.32124      0.87259485   
   4907000   453.88041      41.347907      70690.425     -16988.733      6401.6199     -14.976539      0.8613745    
   4908000   451.4856       41.281062      70348.132     -17054.387      6367.843      -240.91571      0.86556569   
   4909000   457.43797      41.133861      69598.267     -17340.52       6451.7964      183.68694      0.87489146   
   4910000   441.53268      41.225747      70065.724     -17210.678      6227.465       178.44166      0.86905445   
   4911000   450.55842      41.095886      69405.683     -17231.241      6354.7658      242.3525       0.87731907   
   4912000   456.94097      41.375627      70832.695     -17014.066      6444.7866     -161.00857      0.8596444    
   4913000   456.09565      41.166415      69763.643     -17210.465      6432.8641      84.815395      0.87281752   
   4914000   452.76936      41.140941      69634.21      -17157.258      6385.9494     -43.614038      0.87443987   
   4915000   451.50191      41.194065      69904.308     -17161.135      6368.073      -336.24991      0.87106119   
   4916000   451.89208      41.172221      69793.163     -17060.86       6373.576      -251.71328      0.87244834   
   4917000   441.01916      41.240651      70141.74      -17153.874      6220.2222     -283.31047      0.86811262   
   4918000   452.15643      41.31622       70528.026     -17084.06       6377.3045     -36.926476      0.86335791   
   4919000   443.02503      41.11095       69482.039     -17161.904      6248.5134      412.92569      0.87635496   
   4920000   457.05773      41.396902      70942.014     -16987.333      6446.4334     -357.51633      0.85831972   
   4921000   456.27225      41.290114      70394.422     -17168.006      6435.3549     -12.716532      0.86499651   
   4922000   449.78594      40.962283      68730.971     -17325.905      6343.8706     -108.48225      0.88593146   
   4923000   449.40536      41.301774      70454.074     -17180.348      6338.5029     -177.96634      0.86426414   
   4924000   457.1511       40.9853        68846.894     -17348.774      6447.7504      21.545619      0.88443974   
   4925000   456.19661      40.909988      68468.063     -17275.284      6434.288       101.03172      0.88933331   
   4926000   450.08123      41.377036      70839.929     -17265.451      6348.0354     -612.6149       0.85955661   
   4927000   460.74308      41.068132      69265.162     -17182.081      6498.4123      144.81841      0.87909893   
   4928000   459.79477      41.184997      69858.155     -17292.705      6485.0371      44.258354      0.87163666   
   4929000   446.09552      41.105266      69453.22      -17263.637      6291.8202      571.34359      0.8767186    
   4930000   450.81307      41.326858      70582.518     -17134.237      6358.3575     -493.83201      0.86269137   
   4931000   454.45502      41.180335      69834.433     -17150.462      6409.7243      365.59762      0.87193275   
   4932000   452.73376      40.970619      68772.936     -17422.692      6385.4473     -220.67553      0.88539086   
   4933000   448.20783      41.319703      70545.866     -17093.499      6321.6127     -1.8194015      0.86313958   
   4934000   464.0954       41.219824      70035.525     -17156.751      6545.6941      41.190988      0.86942918   
   4935000   447.46166      41.332801      70612.975     -17146.485      6311.0886     -447.01154      0.86231927   
   4936000   451.98516      40.801941      67927.006     -17325.406      6374.889       27.571149      0.89641709   
   4937000   454.30096      41.037129      69108.412     -17069.8        6407.5514      453.96124      0.88109287   
   4938000   438.60353      41.149363      69676.985     -17254.172      6186.1517      307.66803      0.87390305   
   4939000   454.68774      41.416153      71041.035     -17087.486      6413.0066     -396.35261      0.85712334   
   4940000   454.47207      40.985146      68846.117     -17285.739      6409.9647      327.75655      0.88444972   
   4941000   445.36472      41.087321      69362.297     -17171.25       6281.5129      190.33617      0.87786784   
   4942000   452.75963      41.140055      69629.712     -17132.878      6385.8121     -217.20537      0.87449636   
   4943000   449.45446      41.25609       70220.543     -17225.795      6339.1954      227.58161      0.8671384    
   4944000   451.17561      41.135172      69604.921     -17236.526      6363.4709      240.93284      0.87480782   
   4945000   450.27939      41.183775      69851.936     -17188.586      6350.8304      281.92512      0.87171427   
   4946000   462.43503      41.139382      69626.294     -17216.819      6522.2759     -66.874427      0.87453928   
   4947000   455.5089       41.077599      69313.071     -17306.489      6424.5884     -418.3811       0.87849129   
   4948000   455.11515      41.151609      69688.396     -17219.661      6419.0349      372.21436      0.87375994   
   4949000   456.61464      41.249137      70185.045     -17160.966      6440.184       338.29005      0.86757698   
   4950000   455.085        41.247629      70177.352     -17001.571      6418.6097      45.203008      0.86767208   
   4951000   459.34292      41.000215      68922.084     -17243.569      6478.6642      254.16194      0.88347487   
   4952000   454.29262      41.171807      69791.059     -16907.235      6407.4337      230.64534      0.87247465   
   4953000   455.43947      41.048738      69167.078     -17229.952      6423.6092      487.96473      0.88034556   
   4954000   465.67597      41.226757      70070.87      -16951.135      6567.9869      231.98899      0.86899063   
   4955000   456.47641      41.126548      69561.151     -17162.46       6438.2344      257.91701      0.87535827   
   4956000   456.15774      41.098105      69416.93      -17412.742      6433.7398     -240.82969      0.87717693   
   4957000   454.353        41.206416      69967.207     -17092.839      6408.2854      67.030814      0.87027812   
   4958000   454.39979      41.139792      69628.377     -17115.458      6408.9453     -103.45194      0.87451313   
   4959000   451.18673      41.056368      69205.657     -17407.563      6363.6277      206.43728      0.8798548    
   4960000   458.52387      41.078456      69317.412     -17217.698      6467.1122     -236.62987      0.87843628   
   4961000   456.93192      41.050563      69176.306     -17378.95       6444.659       470.44869      0.88022811   
   4962000   447.04983      41.097472      69413.723     -17271.606      6305.28       -62.66126       0.87721746   
   4963000   468.22943      41.084902      69350.049     -17219.94       6604.0014      3.2040172      0.87802287   
   4964000   452.24473      41.219324      70032.977     -17120.906      6378.55        29.128591      0.86946081   
   4965000   454.62767      41.00136       68927.86      -17143.054      6412.1593      590.87881      0.88340084   
   4966000   449.46126      41.424194      71082.418     -16995.973      6339.2912     -375.22869      0.85662434   
   4967000   452.48313      41.126605      69561.441     -17303.16       6381.9123      322.74972      0.87535463   
   4968000   454.11867      41.082705      69338.924     -17300.093      6404.9803      707.54142      0.87816374   
   4969000   456.45665      41.308999      70491.056     -17114.865      6437.9557     -477.12286      0.86381071   
   4970000   449.3126       41.247245      70175.389     -17037.496      6337.1946     -132.46672      0.86769636   
   4971000   460.44235      41.217075      70021.513     -17134.113      6494.1708     -281.91596      0.86960317   
   4972000   457.58129      41.050794      69177.473     -17188.708      6453.8178      51.59362       0.88021327   
   4973000   449.05567      41.180799      69836.798     -17259.325      6333.5708     -596.38913      0.87190323   
   4974000   455.60079      41.038282      69114.236     -17236.686      6425.8844      403.08251      0.88101862   
   4975000   455.02106      41.268754      70285.229     -17122.051      6417.7078     -157.45278      0.86634034   
   4976000   449.5434       41.058527      69216.575     -17336.284      6340.4499     -117.59236      0.87971601   
   4977000   456.13427      41.121648      69536.291     -17317.203      6433.4087      202.66117      0.87567123   
   4978000   456.37116      41.198509      69926.936     -17035.34       6436.75        135.43989      0.87077931   
   4979000   461.52569      41.201202      69940.648     -17397.976      6509.4504     -347.97476      0.8706086    
   4980000   459.8842       41.155491      69708.118     -17265.207      6486.2985      32.867832      0.87351274   
   4981000   443.58399      41.222995      70051.693     -17259.682      6256.3971     -990.35179      0.86922852   
   4982000   449.09271      41.062095      69234.621     -17181.07       6334.0932     -67.331875      0.87948672   
   4983000   460.71777      41.095386      69403.15      -17357.159      6498.0554      45.661294      0.87735109   
   4984000   452.80324      41.138025      69619.408     -17192.156      6386.4272     -334.56643      0.87462579   
   4985000   457.29834      40.942126      68629.551     -17297.587      6449.8271      97.656494      0.88724068   
   4986000   442.65954      41.033809      69091.638     -17303.215      6243.3585      308.05557      0.88130679   
   4987000   449.68689      41.019726      69020.528     -17217.848      6342.4736     -286.12675      0.88221477   
   4988000   461.79054      41.124994      69553.267     -17343.853      6513.1859      120.17456      0.8754575    
   4989000   458.09775      41.098966      69421.292     -17248.744      6461.102      -261.46841      0.87712181   
   4990000   456.953        41.2121        69996.165     -17184.032      6444.9563     -28.522168      0.86991808   
   4991000   460.12129      41.077101      69310.553     -17205.799      6489.6425      132.91849      0.87852321   
   4992000   453.90394      41.137807      69618.301     -17010.412      6401.9517      47.842125      0.8746397    
   4993000   437.66209      41.256179      70221         -17208.863      6172.8734     -267.38493      0.86713276   
   4994000   450.13459      41.175175      69808.185     -17128.376      6348.7881     -247.98428      0.8722606    
   4995000   453.0714       41.12929       69575.067     -17119.668      6390.2095      372.38939      0.87518319   
   4996000   463.58893      41.201754      69943.46      -17210.685      6538.5508     -91.428575      0.8705736    
   4997000   451.40822      41.290001      70393.843     -16948.867      6366.7516     -155.67155      0.86500362   
   4998000   443.31717      41.22098       70041.417     -17091.86       6252.6338      0.54332634     0.86935605   
   4999000   459.63904      41.348619      70694.077     -17277.295      6482.8408     -18.453457      0.86133      
   5000000   447.88476      40.965145      68745.374     -17310.331      6317.056      -166.5152       0.88574584   
Loop time of 7061.24 on 256 procs for 5000000 steps with 6076 atoms

Performance: 122.358 ns/day, 0.196 hours/ns, 708.091 timesteps/s, 4.302 Matom-step/s
99.7% CPU use with 256 MPI tasks x 1 OpenMP threads

MPI task timing breakdown:
Section |  min time  |  avg time  |  max time  |%varavg| %total
---------------------------------------------------------------
Pair    | 703.64     | 807.41     | 908.42     | 148.2 | 11.43
Bond    | 4.5449     | 5.8306     | 10.252     |  29.4 |  0.08
Kspace  | 3301.9     | 3407.7     | 3525.3     |  76.0 | 48.26
Neigh   | 364.51     | 371.75     | 378.27     |  12.2 |  5.26
Comm    | 1155.3     | 1231.9     | 1276.7     |  71.4 | 17.45
Output  | 1.3784     | 2.343      | 4.6662     |  43.1 |  0.03
Modify  | 1108.4     | 1139.4     | 1181.1     |  41.8 | 16.14
Other   |            | 94.93      |            |       |  1.34

Nlocal:        23.7344 ave          34 max          13 min
Histogram: 4 12 25 28 53 44 49 28 7 6
Nghost:        3682.65 ave        3762 max        3602 min
Histogram: 8 16 27 23 39 58 41 19 18 7
Neighs:        12058.8 ave       17978 max        7129 min
Histogram: 10 24 30 34 55 40 32 17 10 4

Total # of neighbors = 3087056
Ave neighs/atom = 508.07373
Ave special neighs/atom = 2.0951284
Neighbor list builds = 644174
Dangerous builds = 0
System init for write_data ...
PPPM initialization ...
  using 12-bit tables for long-range coulomb (src/kspace.cpp:342)
  G vector (1/distance) = 0.25482362
  grid = 30 30 30
  stencil order = 5
  estimated absolute RMS force accuracy = 0.0024910025
  estimated relative force accuracy = 7.5015802e-06
  using double precision FFTW3
  3d grid and FFT values/proc = 1400 128
Generated 66 of 66 mixed pair_coeff terms from geometric mixing rule
Total wall time: 1:57:54
