76
PET trimer 5 ns, timestep 2500000, unwrap Lx 41.323435 (log)
C        1.70388526       1.61079965       1.60954132
C        2.37936526       0.49143965       2.06264132
C        2.52055526       0.20948965       3.45074132
C        1.91591526       1.07528965       4.43314132
C        1.26205526       2.23250965       3.99404132
C        1.00380526       2.37289965       2.57144132
C        3.19455526      -1.08053035       3.94194132
O        3.16168526      -1.40643035       5.16074132
O        3.40270526      -1.87627035       2.89664132
C        0.08760526       3.45376965       2.07914132
O       -0.44909474       4.08096965       2.95864132
H        1.65511526       1.76171965       0.54124132
H        2.79460526      -0.04611035       1.22294132
H        2.13327526       0.80149965       5.45494132
H        0.84445526       2.93284965       4.70214132
O        0.15445526       3.83042965       0.81094132
C       -0.76858474       4.76337965       0.24934132
C       -0.28903474       5.01881965      -1.19785868
C       -0.97777474      -0.00972035      -3.71741868
C       -0.79458474       1.26728965      -3.11225868
C        0.53684526       1.63069965      -2.60935868
C        1.40821526       0.61203965      -2.33215868
C        1.14106526      -0.69938035      -2.77925868
C        0.02061526      -1.02457035      -3.47312868
C        0.74493526       2.96802965      -2.01465868
O        1.95847526       3.27868965      -1.64795868
O       -0.34155474       3.79554965      -2.06345868
C       -0.23312474      -2.49390035      -3.91580868
O       -1.31397474      -2.80429035      -4.50779868
O        0.82285526      -3.23662035      -3.62046868
C        0.88365526      -4.64878135      -4.09556868
O        2.88768526      -5.86372035      -3.07115868
C        2.37728526      -5.17741035      -4.22930868
H       -1.75217474       4.29659965       0.19694132
H       -0.79173474       5.70810965       0.79254132
H        0.77321526       5.26007965      -1.15925868
H       -0.80001474       5.77562965      -1.79305868
H       -1.93236474      -0.30143035      -4.12978868
H       -1.60845474       1.97521965      -3.05915868
H        2.43379526       0.84494965      -2.08655868
H        1.92218526      -1.42195035      -2.59455868
H        0.30039526      -4.66070935      -5.01628868
H        0.29005526      -5.26513035      -3.42045868
H        2.62477526      -6.76998035      -3.12175868
H        2.98781526      -4.36635535      -4.62619868
H        2.29713526      -5.75483035      -5.15030868
O        1.16828526      -3.17333435       2.74164132
C        2.31119526      -3.99725875       3.09404132
C        3.55061526      -3.28717935       2.98184132
H        2.32990526      -4.49690535       4.06254132
H        2.35647526      -4.79097935       2.34834132
H        4.17667526      -3.67988935       2.18064132
H        4.06854526      -3.41477935       3.93234132
C       -5.56408474       2.86197965       0.68034132
C       -4.09128474       3.07182965       0.35834132
C       -0.68667474      -1.71873035      -0.20225868
C       -1.71951474      -0.93528035      -0.54835868
C       -2.28463474      -0.09548035       0.50014132
C       -1.84717474      -0.12937035       1.83434132
C       -0.77722474      -1.02036035       2.12664132
C       -0.21248474      -1.79853035       1.13354132
C       -3.24638474       0.93540965       0.00784132
O       -3.44748474       0.86517965      -1.17265868
O       -3.30518474       1.98526965       0.77024132
C        0.95411526      -2.72640035       1.45174132
O        1.65002526      -3.15552535       0.52064132
H       -5.71208474       2.33584965       1.62344132
H       -5.94838474       2.14113965      -0.04125868
H       -3.64998474       3.79306965       1.04614132
H       -3.87808474       3.44929965      -0.64175868
H       -0.32691474      -2.36053035      -0.99285868
H       -2.13764474      -0.89487035      -1.54325868
H       -2.36896474       0.36200965       2.64224132
H       -0.41954474      -1.00812035       3.14564132
O       -6.30378474       3.97395965       0.60434132
H       -7.21088474       3.76789965       0.77074132
