76
PET trimer 4 ns, timestep 2000000, unwrap Lx 41.161815 (log)
C        0.57012921      -2.15857950       3.24846302
C        1.24899921      -2.89557950       2.30000302
C        2.61805921      -3.13679950       2.29298302
C        3.37455921      -2.64344950       3.31229302
C        2.69775921      -1.90715950       4.36607302
C        1.35975921      -1.62813950       4.29412302
C        3.33445921      -3.93528950       1.20684302
O        4.57685921      -4.16595950       1.17798302
O        2.42095921      -4.36546950       0.23312302
C        0.74654921      -0.77888950       5.37723302
O        1.36492921      -0.44643950       6.31746302
H       -0.44076079      -1.78098950       3.20486302
H        0.55482921      -3.13978950       1.50951302
H        4.44785921      -2.74177950       3.38051302
H        3.28105921      -1.75751950       5.26256302
O       -0.60322079      -0.74791950       5.28290302
C       -1.28538079       0.09159050       6.14843302
C       -1.01646079       1.48727450       5.70057302
C        0.07868921       3.04445050       0.02618302
C       -0.52051079       3.29609050       1.26446302
C       -0.18533079       2.35565350       2.28348302
C        0.69684921       1.27939850       2.03248302
C        1.31726921       1.09238950       0.77534302
C        0.99383921       2.00231550      -0.21232298
C       -0.97081079       2.49928950       3.55826302
O       -1.95192079       3.25145050       3.77277302
O       -0.41741079       1.67867510       4.41161302
C        1.81865921       1.85378150      -1.53268998
O        2.19885921       0.74442050      -1.79918998
O        1.54995921       2.71165050      -2.50079698
C        2.01595921       2.44716750      -3.73909698
O        1.35339921       1.63635310      -6.08408698
C        0.93673921       1.94020950      -4.67949698
H       -2.34122079      -0.13010950       5.99310302
H       -1.10738079      -0.01084950       7.21890302
H       -0.50334079       2.13331950       6.41289302
H       -2.02969079       1.88046650       5.78332302
H       -0.18629079       3.67653050      -0.80846898
H       -1.32082079       4.00580050       1.41341302
H        0.76029921       0.62251450       2.88738302
H        2.09065921       0.35936050       0.59950302
H        2.90095921       1.81215750      -3.78042698
H        2.48725921       3.36699050      -4.08537698
H        0.54010921       1.22382250      -6.33184698
H        0.24646921       2.77904050      -4.76865698
H        0.42573921       1.02327950      -4.38592698
O        1.03457921      -3.60662950      -2.10307698
C        1.69595921      -4.80810950      -1.99702098
C        2.95595921      -4.77068950      -1.04449098
H        1.04428921      -5.54949950      -1.53466398
H        1.91065921      -5.16505950      -3.00426698
H        3.75865921      -4.21476950      -1.52902998
H        3.36955921      -5.72611950      -0.72171298
C       -3.71916079       3.34143050      -4.81362698
C       -3.90055079       3.16129050      -3.28916698
C       -1.59325079      -1.75095950      -0.29680598
C       -2.42908079      -0.55110950      -0.35268598
C       -2.38195079       0.23470050      -1.55318098
C       -1.62242079      -0.24618950      -2.68253698
C       -0.87561079      -1.44321950      -2.68001698
C       -0.90558079      -2.13743950      -1.47406198
C       -3.08072079       1.52449950      -1.62965898
O       -3.82541079       1.82603550      -0.67276798
O       -3.27965079       1.97370950      -2.87698698
C       -0.04342079      -3.35439950      -1.24012618
O       -0.48460079      -4.21423950      -0.49993898
H       -4.21996079       4.27930050      -5.05379698
H       -4.28894079       2.62098050      -5.40045698
H       -4.93028079       3.00440050      -2.96804698
H       -3.42616079       3.96694050      -2.72884698
H       -1.66053079      -2.37330950       0.58327302
H       -3.05073079      -0.23731950       0.47281302
H       -1.54782079       0.40072050      -3.54411698
H       -0.26737079      -1.77015950      -3.51038698
O       -2.29985079       3.37369050      -5.12880698
H       -2.06454079       4.28679050      -5.06648698
