76
PET trimer 6 ns, timestep 3000000, unwrap Lx 40.938760 (log)
C       -0.15641500      -0.97791961      -0.59576895
C       -0.97171500      -0.63771961      -1.61676895
C       -2.37991500      -0.81581961      -1.47676895
C       -2.93171500      -1.31441961      -0.32896895
C       -2.00351500      -1.71261961       0.72803105
C       -0.66401500      -1.50461961       0.63903105
C       -3.29741500      -0.34081961      -2.53766895
O       -4.51537500      -0.57791961      -2.49636895
O       -2.73431500      -0.13301961      -3.76296895
C        0.14788500      -1.80921961       1.80809105
O       -0.34781500      -2.30771961       2.82649105
H        0.85658500      -0.73151961      -0.87746895
H       -0.60961500      -0.29131961      -2.57346895
H       -4.00067500      -1.46791961      -0.32016895
H       -2.48521500      -2.00171961       1.65043105
O        1.25898500      -1.21881961       1.84779105
C        2.15868500      -1.52031961       2.97879105
C        2.96408500      -0.36951961       3.51549105
C        2.07048500       5.86394039       3.83849105
C        2.28178500       4.56724039       4.36849105
C        2.13628500       3.35378039       3.59119105
C        1.87298500       3.47538039       2.18739105
C        1.70468500       4.79344039       1.63743105
C        1.82158500       5.96304039       2.46679105
C        2.54588500       1.97668039       4.20409105
O        3.17048500       1.88468039       5.24649105
O        2.27688500       0.86078039       3.39489105
C        1.64858500       7.26634039       1.93339105
O        1.92788500       7.45254039       0.72513105
O        0.99288500       8.10924039       2.72449105
C        0.19928500       9.17754039       2.20349105
O       -1.93361500       8.53094039       3.17819105
C       -1.28091500       8.71054039       1.89779105
H        1.61368500      -1.72441961       3.90049105
H        2.69018500      -2.46831961       2.89569105
H        3.94538500      -0.24561961       3.05729105
H        3.19168500      -0.69361961       4.53099105
H        2.11558500       6.74664039       4.45919105
H        2.24548500       4.47938039       5.44429105
H        1.90178500       2.60458039       1.54933105
H        1.73048500       5.04914039       0.58853105
H        0.72118500       9.54664039       1.32053105
H        0.17058500       9.94324039       2.97879105
H       -2.13751500       9.37344039       3.55459105
H       -1.12041500       7.80694039       1.30973105
H       -1.80531500       9.52004039       1.38993105
O       -3.41861500      -2.71031961      -4.87456895
C       -4.24747500      -1.53831961      -5.26506895
C       -3.54001500      -0.21351961      -5.03656895
H       -4.60387500      -1.75531961      -6.27206895
H       -5.19287500      -1.51921961      -4.72286895
H       -4.27257500       0.59258039      -4.99576895
H       -2.86311500       0.19658039      -5.78606895
C        1.63388500      -5.50521961       1.70853105
C        1.76598500      -6.26313961       0.34683105
C       -0.06491500      -4.25621961      -5.06276895
C        0.75198500      -5.05201961      -4.18506895
C        0.31068500      -5.16591961      -2.86596895
C       -0.89941500      -4.74631961      -2.42696895
C       -1.73351500      -4.00261961      -3.26056895
C       -1.35561500      -3.81721961      -4.61986895
C        1.30748500      -5.65431961      -1.87016895
O        2.11888500      -6.49188961      -2.30016895
O        0.92608500      -5.66781961      -0.64156895
C       -2.29421500      -3.01731961      -5.47746895
O       -2.03311500      -2.45241961      -6.56416895
H        0.68768500      -5.66941961       2.22419105
H        1.74678500      -4.43211961       1.55413105
H        1.49378500      -7.31335961       0.45193105
H        2.82678500      -6.25141961       0.09633105
H        0.12488500      -3.94671961      -6.07986895
H        1.68608500      -5.37951961      -4.61696895
H       -1.24541500      -4.71271961      -1.40436895
H       -2.66551500      -3.63871961      -2.85386895
O        2.64928500      -5.98271961       2.67449105
H        3.41348500      -5.82451961       2.14149105
